 written on 27Oct2022 at 19:48:55 
           3
        1331
   -5   -5   -5    1    1   -0.000000   -0.000000    0.000000   -0.000000   -0.000000   -0.000000
   -5   -5   -5    2    1    0.000000    0.000000    0.000000   -0.000000    0.000000   -0.000000
   -5   -5   -5    3    1   -0.000000   -0.000000    0.000000   -0.000000   -0.000000   -0.000000
   -5   -5   -5    1    2   -0.000000    0.000000   -0.000000   -0.000000   -0.000000   -0.000000
   -5   -5   -5    2    2   -0.000000   -0.000000   -0.000000   -0.000000   -0.000000   -0.000000
   -5   -5   -5    3    2    0.000000   -0.000000   -0.000000    0.000000   -0.000000    0.000000
   -5   -5   -5    1    3    0.000000   -0.000000   -0.000000   -0.000000    0.000000   -0.000000
   -5   -5   -5    2    3   -0.000000   -0.000000    0.000000    0.000000    0.000000    0.000000
   -5   -5   -5    3    3    0.000000   -0.000000    0.000000   -0.000000   -0.000000   -0.000000
   -5   -5   -4    1    1    0.000000   -0.000000    0.000000   -0.000000   -0.000000   -0.000000
   -5   -5   -4    2    1   -0.000000   -0.000000    0.000000   -0.000000    0.000000    0.000000
   -5   -5   -4    3    1    0.000000   -0.000000    0.000003    0.000000   -0.000000   -0.000000
   -5   -5   -4    1    2   -0.000000   -0.000000    0.000000    0.000000    0.000000   -0.000000
   -5   -5   -4    2    2    0.000000   -0.000000    0.000000    0.000000    0.000000    0.000000
   -5   -5   -4    3    2    0.000003   -0.000000   -0.000000   -0.000000    0.000000    0.000000
   -5   -5   -4    1    3    0.000000    0.000000    0.000003    0.000000   -0.000000   -0.000000
   -5   -5   -4    2    3    0.000003    0.000000    0.000000    0.000000   -0.000000    0.000000
   -5   -5   -4    3    3    0.000000   -0.000000    0.000000   -0.000000   -0.000000   -0.000000
   -5   -5   -3    1    1    0.000000    0.000000    0.000000   -0.000000    0.000000   -0.000000
   -5   -5   -3    2    1    0.000000    0.000000   -0.000000   -0.000000   -0.000000   -0.000000
   -5   -5   -3    3    1    0.000000   -0.000000    0.000004   -0.000000    0.000000   -0.000000
   -5   -5   -3    1    2    0.000000    0.000000   -0.000000    0.000000   -0.000000    0.000000
   -5   -5   -3    2    2    0.000000    0.000000    0.000000   -0.000000    0.000000   -0.000000
   -5   -5   -3    3    2    0.000004    0.000000    0.000000    0.000000   -0.000000    0.000000
   -5   -5   -3    1    3    0.000000   -0.000000    0.000004   -0.000000    0.000000    0.000000
   -5   -5   -3    2    3    0.000004    0.000000   -0.000000    0.000000    0.000000    0.000000
   -5   -5   -3    3    3    0.000000    0.000000    0.000000   -0.000000    0.000000   -0.000000
   -5   -5   -2    1    1   -0.000000    0.000000    0.000000   -0.000000   -0.000000   -0.000000
   -5   -5   -2    2    1   -0.000000    0.000000   -0.000000    0.000000    0.000000    0.000000
   -5   -5   -2    3    1    0.000000    0.000000    0.000014   -0.000000    0.000000   -0.000000
   -5   -5   -2    1    2   -0.000000   -0.000000    0.000000    0.000000    0.000000   -0.000000
   -5   -5   -2    2    2    0.000000    0.000000    0.000000    0.000000    0.000000    0.000000
   -5   -5   -2    3    2    0.000014    0.000000    0.000000   -0.000000   -0.000000    0.000000
   -5   -5   -2    1    3   -0.000000   -0.000000    0.000014   -0.000000    0.000000   -0.000000
   -5   -5   -2    2    3    0.000014    0.000000   -0.000000    0.000000   -0.000000    0.000000
   -5   -5   -2    3    3    0.000000   -0.000000    0.000000   -0.000000   -0.000000    0.000000
   -5   -5   -1    1    1    0.000000   -0.000000    0.000000    0.000000   -0.000000    0.000000
   -5   -5   -1    2    1   -0.000000   -0.000000    0.000000    0.000000   -0.000000   -0.000000
   -5   -5   -1    3    1    0.000000    0.000000    0.000022   -0.000000   -0.000000    0.000000
   -5   -5   -1    1    2   -0.000000   -0.000000   -0.000000    0.000000   -0.000000    0.000000
   -5   -5   -1    2    2    0.000000   -0.000000    0.000000   -0.000000    0.000000   -0.000000
   -5   -5   -1    3    2    0.000022    0.000000    0.000000   -0.000000    0.000000   -0.000000
   -5   -5   -1    1    3   -0.000000   -0.000000    0.000022   -0.000000   -0.000000   -0.000000
   -5   -5   -1    2    3    0.000022   -0.000000   -0.000000   -0.000000    0.000000    0.000000
   -5   -5   -1    3    3    0.000000    0.000000    0.000000   -0.000000    0.000000    0.000000
   -5   -5    0    1    1    0.000000    0.000000    0.000000    0.000000    0.000000    0.000000
   -5   -5    0    2    1   -0.000000    0.000000    0.000000    0.000000    0.000000    0.000000
   -5   -5    0    3    1    0.000000   -0.000000   -0.000000   -0.000000   -0.000000   -0.000000
   -5   -5    0    1    2    0.000000    0.000000   -0.000000    0.000000    0.000000   -0.000000
   -5   -5    0    2    2    0.000000    0.000000   -0.000000    0.000000   -0.000000    0.000000
   -5   -5    0    3    2    0.000000   -0.000000   -0.000000    0.000000   -0.000000   -0.000000
   -5   -5    0    1    3   -0.000000   -0.000000    0.000000   -0.000000   -0.000000    0.000000
   -5   -5    0    2    3   -0.000000   -0.000000    0.000000    0.000000   -0.000000    0.000000
   -5   -5    0    3    3    0.000000    0.000000    0.000000    0.000000    0.000000    0.000000
   -5   -5    1    1    1   -0.000000    0.000000    0.000000    0.000000   -0.000000   -0.000000
   -5   -5    1    2    1    0.000000   -0.000000    0.000000    0.000000   -0.000000   -0.000000
   -5   -5    1    3    1    0.000000   -0.000000   -0.000022   -0.000000   -0.000000    0.000000
   -5   -5    1    1    2    0.000000   -0.000000   -0.000000    0.000000   -0.000000    0.000000
   -5   -5    1    2    2    0.000000    0.000000    0.000000    0.000000    0.000000    0.000000
   -5   -5    1    3    2   -0.000022   -0.000000    0.000000   -0.000000   -0.000000   -0.000000
   -5   -5    1    1    3   -0.000000    0.000000   -0.000022   -0.000000   -0.000000   -0.000000
   -5   -5    1    2    3   -0.000022    0.000000   -0.000000   -0.000000    0.000000    0.000000
   -5   -5    1    3    3   -0.000000   -0.000000    0.000000    0.000000    0.000000   -0.000000
   -5   -5    2    1    1   -0.000000   -0.000000    0.000000    0.000000   -0.000000    0.000000
   -5   -5    2    2    1    0.000000   -0.000000   -0.000000    0.000000    0.000000   -0.000000
   -5   -5    2    3    1    0.000000   -0.000000   -0.000014   -0.000000    0.000000    0.000000
   -5   -5    2    1    2    0.000000    0.000000    0.000000    0.000000    0.000000    0.000000
   -5   -5    2    2    2    0.000000   -0.000000   -0.000000   -0.000000    0.000000   -0.000000
   -5   -5    2    3    2   -0.000014    0.000000    0.000000    0.000000   -0.000000    0.000000
   -5   -5    2    1    3   -0.000000    0.000000   -0.000014   -0.000000   -0.000000    0.000000
   -5   -5    2    2    3   -0.000014    0.000000   -0.000000   -0.000000    0.000000   -0.000000
   -5   -5    2    3    3    0.000000    0.000000    0.000000   -0.000000   -0.000000   -0.000000
   -5   -5    3    1    1    0.000000    0.000000    0.000000    0.000000    0.000000    0.000000
   -5   -5    3    2    1   -0.000000    0.000000    0.000000    0.000000   -0.000000    0.000000
   -5   -5    3    3    1   -0.000000   -0.000000   -0.000004   -0.000000   -0.000000    0.000000
   -5   -5    3    1    2   -0.000000    0.000000    0.000000   -0.000000   -0.000000   -0.000000
   -5   -5    3    2    2    0.000000    0.000000   -0.000000    0.000000    0.000000    0.000000
   -5   -5    3    3    2   -0.000004    0.000000    0.000000    0.000000   -0.000000    0.000000
   -5   -5    3    1    3   -0.000000   -0.000000   -0.000004   -0.000000   -0.000000   -0.000000
   -5   -5    3    2    3   -0.000004    0.000000   -0.000000    0.000000    0.000000   -0.000000
   -5   -5    3    3    3    0.000000   -0.000000    0.000000    0.000000    0.000000    0.000000
   -5   -5    4    1    1    0.000000    0.000000    0.000000   -0.000000   -0.000000    0.000000
   -5   -5    4    2    1    0.000000   -0.000000   -0.000000    0.000000    0.000000    0.000000
   -5   -5    4    3    1   -0.000000    0.000000   -0.000003    0.000000    0.000000   -0.000000
   -5   -5    4    1    2    0.000000   -0.000000   -0.000000   -0.000000    0.000000   -0.000000
   -5   -5    4    2    2    0.000000   -0.000000    0.000000   -0.000000    0.000000   -0.000000
   -5   -5    4    3    2   -0.000003    0.000000   -0.000000    0.000000   -0.000000    0.000000
   -5   -5    4    1    3   -0.000000   -0.000000   -0.000003    0.000000    0.000000   -0.000000
   -5   -5    4    2    3   -0.000003   -0.000000    0.000000   -0.000000   -0.000000    0.000000
   -5   -5    4    3    3   -0.000000    0.000000    0.000000   -0.000000   -0.000000    0.000000
   -5   -5    5    1    1   -0.000000    0.000000    0.000000    0.000000   -0.000000    0.000000
   -5   -5    5    2    1    0.000000    0.000000    0.000000   -0.000000    0.000000   -0.000000
   -5   -5    5    3    1   -0.000000   -0.000000    0.000000   -0.000000   -0.000000   -0.000000
   -5   -5    5    1    2   -0.000000    0.000000   -0.000000   -0.000000   -0.000000   -0.000000
   -5   -5    5    2    2   -0.000000    0.000000   -0.000000    0.000000   -0.000000    0.000000
   -5   -5    5    3    2    0.000000   -0.000000   -0.000000    0.000000   -0.000000    0.000000
   -5   -5    5    1    3    0.000000   -0.000000   -0.000000   -0.000000    0.000000   -0.000000
   -5   -5    5    2    3   -0.000000   -0.000000    0.000000    0.000000    0.000000    0.000000
   -5   -5    5    3    3    0.000000    0.000000    0.000000    0.000000   -0.000000    0.000000
   -5   -4   -5    1    1    0.000000   -0.000000   -0.000000    0.000000    0.000000   -0.000000
   -5   -4   -5    2    1    0.000003    0.000000    0.000000   -0.000000   -0.000000   -0.000000
   -5   -4   -5    3    1    0.000000   -0.000000    0.000000   -0.000000    0.000003   -0.000000
   -5   -4   -5    1    2    0.000003   -0.000000   -0.000000    0.000000   -0.000000    0.000000
   -5   -4   -5    2    2    0.000000   -0.000000   -0.000000   -0.000000    0.000000   -0.000000
   -5   -4   -5    3    2    0.000000   -0.000000    0.000000   -0.000000    0.000000   -0.000000
   -5   -4   -5    1    3    0.000000    0.000000   -0.000000   -0.000000    0.000003   -0.000000
   -5   -4   -5    2    3    0.000000   -0.000000   -0.000000   -0.000000    0.000000    0.000000
   -5   -4   -5    3    3    0.000000   -0.000000   -0.000000   -0.000000    0.000000   -0.000000
   -5   -4   -4    1    1    0.000000   -0.000000   -0.000000    0.000000    0.000000    0.000000
   -5   -4   -4    2    1   -0.000002   -0.000000    0.000000   -0.000000    0.000000   -0.000000
   -5   -4   -4    3    1   -0.000000   -0.000000    0.000003   -0.000000    0.000003   -0.000000
   -5   -4   -4    1    2   -0.000002   -0.000000    0.000000    0.000000    0.000000    0.000000
   -5   -4   -4    2    2    0.000000   -0.000000    0.000000    0.000000   -0.000000    0.000000
   -5   -4   -4    3    2   -0.000002   -0.000000    0.000000    0.000000   -0.000000   -0.000000
   -5   -4   -4    1    3   -0.000000   -0.000000    0.000003    0.000000    0.000003   -0.000000
   -5   -4   -4    2    3   -0.000002   -0.000000    0.000000   -0.000000    0.000000   -0.000000
   -5   -4   -4    3    3    0.000000   -0.000000   -0.000000   -0.000000   -0.000000    0.000000
   -5   -4   -3    1    1   -0.000000    0.000000    0.000000    0.000000    0.000000   -0.000000
   -5   -4   -3    2    1    0.000004    0.000000   -0.000000   -0.000000   -0.000000   -0.000000
   -5   -4   -3    3    1    0.000001    0.000000    0.000003    0.000000    0.000001    0.000000
   -5   -4   -3    1    2    0.000004    0.000000    0.000000   -0.000000   -0.000000   -0.000000
   -5   -4   -3    2    2    0.000000   -0.000000    0.000000    0.000000    0.000000   -0.000000
   -5   -4   -3    3    2   -0.000005    0.000000   -0.000000    0.000000   -0.000000    0.000000
   -5   -4   -3    1    3   -0.000001   -0.000000    0.000003   -0.000000    0.000002   -0.000000
   -5   -4   -3    2    3   -0.000005   -0.000000    0.000000   -0.000000    0.000000   -0.000000
   -5   -4   -3    3    3    0.000000    0.000000   -0.000000   -0.000000    0.000000    0.000000
   -5   -4   -2    1    1    0.000000    0.000000    0.000000   -0.000000   -0.000000    0.000000
   -5   -4   -2    2    1   -0.000000   -0.000000   -0.000000   -0.000000   -0.000000    0.000000
   -5   -4   -2    3    1   -0.000000    0.000000    0.000013   -0.000000   -0.000001    0.000000
   -5   -4   -2    1    2   -0.000000   -0.000000   -0.000000   -0.000000    0.000000   -0.000000
   -5   -4   -2    2    2    0.000000   -0.000000    0.000000    0.000000   -0.000000   -0.000000
   -5   -4   -2    3    2    0.000004   -0.000000   -0.000000    0.000000   -0.000000   -0.000000
   -5   -4   -2    1    3    0.000000    0.000000    0.000013   -0.000000    0.000001    0.000000
   -5   -4   -2    2    3    0.000004    0.000000    0.000000   -0.000000   -0.000000    0.000000
   -5   -4   -2    3    3    0.000000   -0.000000    0.000000    0.000000    0.000000   -0.000000
   -5   -4   -1    1    1    0.000000   -0.000000    0.000000   -0.000000   -0.000000    0.000000
   -5   -4   -1    2    1   -0.000004   -0.000000    0.000000    0.000000    0.000000   -0.000000
   -5   -4   -1    3    1    0.000004    0.000000    0.000019    0.000000   -0.000005    0.000000
   -5   -4   -1    1    2   -0.000004   -0.000000    0.000000    0.000000   -0.000000   -0.000000
   -5   -4   -1    2    2    0.000000   -0.000000   -0.000000    0.000000    0.000000   -0.000000
   -5   -4   -1    3    2    0.000013   -0.000000    0.000000    0.000000   -0.000000   -0.000000
   -5   -4   -1    1    3   -0.000004   -0.000000    0.000019    0.000000    0.000004   -0.000000
   -5   -4   -1    2    3    0.000013    0.000000    0.000000   -0.000000   -0.000000   -0.000000
   -5   -4   -1    3    3   -0.000000    0.000000    0.000000    0.000000   -0.000000   -0.000000
   -5   -4    0    1    1    0.000000    0.000000   -0.000000   -0.000000    0.000000    0.000000
   -5   -4    0    2    1    0.000006    0.000000   -0.000000    0.000000    0.000000    0.000000
   -5   -4    0    3    1   -0.000000   -0.000000    0.000000    0.000000   -0.000003    0.000000
   -5   -4    0    1    2    0.000006    0.000000    0.000000    0.000000   -0.000000   -0.000000
   -5   -4    0    2    2    0.000000   -0.000000    0.000000   -0.000000    0.000000   -0.000000
   -5   -4    0    3    2    0.000000   -0.000000   -0.000000   -0.000000   -0.000000   -0.000000
   -5   -4    0    1    3   -0.000000    0.000000    0.000000    0.000000    0.000003    0.000000
   -5   -4    0    2    3    0.000000    0.000000   -0.000000   -0.000000    0.000000   -0.000000
   -5   -4    0    3    3    0.000000   -0.000000    0.000000    0.000000   -0.000000    0.000000
   -5   -4    1    1    1   -0.000000    0.000000   -0.000000   -0.000000   -0.000000    0.000000
   -5   -4    1    2    1   -0.000004    0.000000   -0.000000   -0.000000   -0.000000   -0.000000
   -5   -4    1    3    1   -0.000004    0.000000   -0.000019   -0.000000   -0.000005   -0.000000
   -5   -4    1    1    2   -0.000004    0.000000    0.000000   -0.000000    0.000000    0.000000
   -5   -4    1    2    2    0.000000    0.000000    0.000000    0.000000    0.000000    0.000000
   -5   -4    1    3    2   -0.000013   -0.000000   -0.000000   -0.000000    0.000000   -0.000000
   -5   -4    1    1    3    0.000004    0.000000   -0.000019   -0.000000    0.000005   -0.000000
   -5   -4    1    2    3   -0.000013   -0.000000   -0.000000    0.000000    0.000000    0.000000
   -5   -4    1    3    3   -0.000000   -0.000000    0.000000    0.000000   -0.000000   -0.000000
   -5   -4    2    1    1    0.000000   -0.000000   -0.000000    0.000000   -0.000000    0.000000
   -5   -4    2    2    1   -0.000000    0.000000   -0.000000    0.000000   -0.000000   -0.000000
   -5   -4    2    3    1    0.000000    0.000000   -0.000013   -0.000000   -0.000002    0.000000
   -5   -4    2    1    2   -0.000000    0.000000   -0.000000    0.000000    0.000000   -0.000000
   -5   -4    2    2    2    0.000000   -0.000000    0.000000   -0.000000   -0.000000   -0.000000
   -5   -4    2    3    2   -0.000004   -0.000000   -0.000000    0.000000    0.000000    0.000000
   -5   -4    2    1    3   -0.000000   -0.000000   -0.000013   -0.000000    0.000002   -0.000000
   -5   -4    2    2    3   -0.000004   -0.000000    0.000000   -0.000000   -0.000000    0.000000
   -5   -4    2    3    3    0.000000    0.000000    0.000000   -0.000000    0.000000   -0.000000
   -5   -4    3    1    1    0.000000   -0.000000    0.000000    0.000000    0.000000    0.000000
   -5   -4    3    2    1    0.000004    0.000000    0.000000    0.000000   -0.000000    0.000000
   -5   -4    3    3    1   -0.000001    0.000000   -0.000003    0.000000    0.000000    0.000000
   -5   -4    3    1    2    0.000004    0.000000    0.000000    0.000000   -0.000000    0.000000
   -5   -4    3    2    2    0.000000    0.000000   -0.000000   -0.000000   -0.000000   -0.000000
   -5   -4    3    3    2    0.000005   -0.000000   -0.000000   -0.000000   -0.000000    0.000000
   -5   -4    3    1    3    0.000001    0.000000   -0.000003    0.000000    0.000001   -0.000000
   -5   -4    3    2    3    0.000005   -0.000000    0.000000    0.000000    0.000000   -0.000000
   -5   -4    3    3    3    0.000000   -0.000000    0.000000    0.000000    0.000000    0.000000
   -5   -4    4    1    1   -0.000000    0.000000    0.000000   -0.000000   -0.000000    0.000000
   -5   -4    4    2    1   -0.000002   -0.000000    0.000000    0.000000   -0.000000   -0.000000
   -5   -4    4    3    1   -0.000000    0.000000   -0.000003    0.000000    0.000002   -0.000000
   -5   -4    4    1    2   -0.000002    0.000000    0.000000    0.000000    0.000000   -0.000000
   -5   -4    4    2    2    0.000000   -0.000000   -0.000000    0.000000    0.000000   -0.000000
   -5   -4    4    3    2    0.000002    0.000000   -0.000000   -0.000000    0.000000   -0.000000
   -5   -4    4    1    3    0.000000    0.000000   -0.000003    0.000000    0.000002    0.000000
   -5   -4    4    2    3    0.000002   -0.000000   -0.000000    0.000000   -0.000000   -0.000000
   -5   -4    4    3    3   -0.000000    0.000000    0.000000   -0.000000    0.000000   -0.000000
   -5   -4    5    1    1    0.000000   -0.000000   -0.000000    0.000000    0.000000    0.000000
   -5   -4    5    2    1    0.000003    0.000000    0.000000   -0.000000   -0.000000   -0.000000
   -5   -4    5    3    1    0.000000   -0.000000    0.000000   -0.000000    0.000003   -0.000000
   -5   -4    5    1    2    0.000003   -0.000000   -0.000000    0.000000   -0.000000    0.000000
   -5   -4    5    2    2    0.000000   -0.000000   -0.000000   -0.000000    0.000000    0.000000
   -5   -4    5    3    2    0.000000   -0.000000    0.000000   -0.000000    0.000000   -0.000000
   -5   -4    5    1    3    0.000000    0.000000   -0.000000   -0.000000    0.000003   -0.000000
   -5   -4    5    2    3    0.000000   -0.000000   -0.000000   -0.000000    0.000000    0.000000
   -5   -4    5    3    3    0.000000    0.000000   -0.000000   -0.000000    0.000000    0.000000
   -5   -3   -5    1    1    0.000000   -0.000000   -0.000000   -0.000000    0.000000    0.000000
   -5   -3   -5    2    1    0.000004    0.000000   -0.000000   -0.000000   -0.000000   -0.000000
   -5   -3   -5    3    1   -0.000000    0.000000    0.000000    0.000000    0.000004    0.000000
   -5   -3   -5    1    2    0.000004    0.000000   -0.000000   -0.000000   -0.000000    0.000000
   -5   -3   -5    2    2    0.000000    0.000000    0.000000   -0.000000    0.000000    0.000000
   -5   -3   -5    3    2   -0.000000    0.000000    0.000000    0.000000    0.000000    0.000000
   -5   -3   -5    1    3    0.000000    0.000000    0.000000    0.000000    0.000004    0.000000
   -5   -3   -5    2    3    0.000000    0.000000    0.000000    0.000000    0.000000    0.000000
   -5   -3   -5    3    3    0.000000    0.000000   -0.000000    0.000000    0.000000    0.000000
   -5   -3   -4    1    1    0.000000    0.000000   -0.000000   -0.000000   -0.000000   -0.000000
   -5   -3   -4    2    1   -0.000005   -0.000000   -0.000000    0.000000   -0.000000    0.000000
   -5   -3   -4    3    1   -0.000001    0.000000    0.000002    0.000000    0.000003    0.000000
   -5   -3   -4    1    2   -0.000005    0.000000   -0.000000   -0.000000    0.000000   -0.000000
   -5   -3   -4    2    2    0.000000    0.000000    0.000000   -0.000000    0.000000   -0.000000
   -5   -3   -4    3    2    0.000004    0.000000   -0.000000   -0.000000    0.000000    0.000000
   -5   -3   -4    1    3    0.000001   -0.000000    0.000001   -0.000000    0.000003    0.000000
   -5   -3   -4    2    3    0.000004   -0.000000   -0.000000    0.000000    0.000000    0.000000
   -5   -3   -4    3    3    0.000000   -0.000000   -0.000000    0.000000   -0.000000   -0.000000
   -5   -3   -3    1    1    0.000000    0.000000   -0.000000    0.000000   -0.000000   -0.000000
   -5   -3   -3    2    1    0.000007    0.000000    0.000000    0.000000   -0.000000    0.000000
   -5   -3   -3    3    1   -0.000000    0.000000    0.000003   -0.000000   -0.000002   -0.000000
   -5   -3   -3    1    2    0.000007    0.000000    0.000000    0.000000    0.000000   -0.000000
   -5   -3   -3    2    2    0.000000    0.000000   -0.000000   -0.000000    0.000000    0.000000
   -5   -3   -3    3    2    0.000007    0.000000   -0.000000   -0.000000   -0.000000    0.000000
   -5   -3   -3    1    3    0.000000   -0.000000   -0.000002   -0.000000    0.000003   -0.000000
   -5   -3   -3    2    3    0.000007   -0.000000   -0.000000    0.000000   -0.000000   -0.000000
   -5   -3   -3    3    3    0.000000    0.000000   -0.000000    0.000000    0.000000   -0.000000
   -5   -3   -2    1    1    0.000000   -0.000000    0.000000    0.000000    0.000000    0.000000
   -5   -3   -2    2    1   -0.000000    0.000000   -0.000000   -0.000000   -0.000000    0.000000
   -5   -3   -2    3    1   -0.000003   -0.000000    0.000006   -0.000000   -0.000014   -0.000000
   -5   -3   -2    1    2   -0.000000    0.000000   -0.000000   -0.000000    0.000000   -0.000000
   -5   -3   -2    2    2    0.000000   -0.000000    0.000000   -0.000000   -0.000000   -0.000000
   -5   -3   -2    3    2    0.000022   -0.000000    0.000000   -0.000000    0.000000    0.000000
   -5   -3   -2    1    3    0.000003    0.000000    0.000003   -0.000000    0.000009    0.000000
   -5   -3   -2    2    3    0.000022   -0.000000   -0.000000    0.000000    0.000000    0.000000
   -5   -3   -2    3    3    0.000000   -0.000000   -0.000000    0.000000    0.000000   -0.000000
   -5   -3   -1    1    1    0.000000    0.000000   -0.000000   -0.000000    0.000000    0.000000
   -5   -3   -1    2    1   -0.000004    0.000000    0.000000   -0.000000    0.000000   -0.000000
   -5   -3   -1    3    1    0.000008   -0.000000    0.000021    0.000000   -0.000029    0.000000
   -5   -3   -1    1    2   -0.000004    0.000000    0.000000   -0.000000   -0.000000    0.000000
   -5   -3   -1    2    2    0.000000    0.000000   -0.000000   -0.000000   -0.000000    0.000000
   -5   -3   -1    3    2    0.000036    0.000000    0.000000   -0.000000    0.000000   -0.000000
   -5   -3   -1    1    3   -0.000008    0.000000   -0.000007   -0.000000    0.000025   -0.000000
   -5   -3   -1    2    3    0.000036   -0.000000    0.000000    0.000000   -0.000000    0.000000
   -5   -3   -1    3    3   -0.000000    0.000000   -0.000000   -0.000000   -0.000000   -0.000000
   -5   -3    0    1    1   -0.000000    0.000000   -0.000000    0.000000    0.000000   -0.000000
   -5   -3    0    2    1    0.000021    0.000000   -0.000000   -0.000000   -0.000000    0.000000
   -5   -3    0    3    1    0.000000    0.000000    0.000000   -0.000000   -0.000034    0.000000
   -5   -3    0    1    2    0.000021    0.000000   -0.000000    0.000000   -0.000000   -0.000000
   -5   -3    0    2    2    0.000000    0.000000    0.000000   -0.000000   -0.000000   -0.000000
   -5   -3    0    3    2   -0.000000    0.000000    0.000000   -0.000000   -0.000000    0.000000
   -5   -3    0    1    3   -0.000000   -0.000000    0.000000   -0.000000    0.000034    0.000000
   -5   -3    0    2    3   -0.000000    0.000000   -0.000000    0.000000    0.000000   -0.000000
   -5   -3    0    3    3    0.000000    0.000000   -0.000000    0.000000    0.000000   -0.000000
   -5   -3    1    1    1    0.000000   -0.000000   -0.000000    0.000000   -0.000000    0.000000
   -5   -3    1    2    1   -0.000004   -0.000000   -0.000000    0.000000   -0.000000   -0.000000
   -5   -3    1    3    1   -0.000008    0.000000   -0.000021   -0.000000   -0.000034   -0.000000
   -5   -3    1    1    2   -0.000004    0.000000   -0.000000    0.000000   -0.000000    0.000000
   -5   -3    1    2    2    0.000000   -0.000000    0.000000    0.000000    0.000000    0.000000
   -5   -3    1    3    2   -0.000036   -0.000000    0.000000    0.000000   -0.000000    0.000000
   -5   -3    1    1    3    0.000008    0.000000    0.000007    0.000000    0.000034   -0.000000
   -5   -3    1    2    3   -0.000036    0.000000    0.000000   -0.000000   -0.000000   -0.000000
   -5   -3    1    3    3   -0.000000   -0.000000   -0.000000    0.000000   -0.000000    0.000000
   -5   -3    2    1    1    0.000000   -0.000000   -0.000000    0.000000   -0.000000   -0.000000
   -5   -3    2    2    1   -0.000000    0.000000   -0.000000   -0.000000    0.000000    0.000000
   -5   -3    2    3    1    0.000003   -0.000000   -0.000006    0.000000   -0.000020    0.000000
   -5   -3    2    1    2   -0.000000    0.000000    0.000000   -0.000000   -0.000000    0.000000
   -5   -3    2    2    2    0.000000   -0.000000   -0.000000   -0.000000    0.000000   -0.000000
   -5   -3    2    3    2   -0.000022   -0.000000    0.000000   -0.000000    0.000000    0.000000
   -5   -3    2    1    3   -0.000003    0.000000   -0.000003    0.000000    0.000018   -0.000000
   -5   -3    2    2    3   -0.000022   -0.000000   -0.000000   -0.000000    0.000000   -0.000000
   -5   -3    2    3    3    0.000000    0.000000    0.000000   -0.000000    0.000000   -0.000000
   -5   -3    3    1    1   -0.000000    0.000000    0.000000   -0.000000   -0.000000   -0.000000
   -5   -3    3    2    1    0.000007    0.000000   -0.000000   -0.000000   -0.000000   -0.000000
   -5   -3    3    3    1   -0.000000   -0.000000   -0.000003   -0.000000   -0.000006    0.000000
   -5   -3    3    1    2    0.000007   -0.000000    0.000000   -0.000000   -0.000000    0.000000
   -5   -3    3    2    2    0.000000    0.000000    0.000000   -0.000000    0.000000   -0.000000
   -5   -3    3    3    2   -0.000007   -0.000000   -0.000000   -0.000000   -0.000000    0.000000
   -5   -3    3    1    3    0.000000   -0.000000    0.000002   -0.000000    0.000007   -0.000000
   -5   -3    3    2    3   -0.000007   -0.000000   -0.000000    0.000000    0.000000   -0.000000
   -5   -3    3    3    3    0.000000   -0.000000   -0.000000    0.000000   -0.000000   -0.000000
   -5   -3    4    1    1    0.000000   -0.000000    0.000000    0.000000    0.000000   -0.000000
   -5   -3    4    2    1   -0.000005    0.000000   -0.000000    0.000000   -0.000000   -0.000000
   -5   -3    4    3    1    0.000001   -0.000000   -0.000002    0.000000    0.000001   -0.000000
   -5   -3    4    1    2   -0.000005    0.000000   -0.000000   -0.000000   -0.000000   -0.000000
   -5   -3    4    2    2    0.000000   -0.000000   -0.000000    0.000000   -0.000000    0.000000
   -5   -3    4    3    2   -0.000004   -0.000000   -0.000000    0.000000    0.000000    0.000000
   -5   -3    4    1    3   -0.000001    0.000000   -0.000001    0.000000    0.000004    0.000000
   -5   -3    4    2    3   -0.000004    0.000000   -0.000000   -0.000000   -0.000000    0.000000
   -5   -3    4    3    3   -0.000000    0.000000   -0.000000    0.000000    0.000000   -0.000000
   -5   -3    5    1    1    0.000000   -0.000000   -0.000000   -0.000000    0.000000    0.000000
   -5   -3    5    2    1    0.000004    0.000000   -0.000000   -0.000000   -0.000000   -0.000000
   -5   -3    5    3    1   -0.000000    0.000000    0.000000    0.000000    0.000004    0.000000
   -5   -3    5    1    2    0.000004    0.000000   -0.000000   -0.000000   -0.000000    0.000000
   -5   -3    5    2    2    0.000000    0.000000    0.000000   -0.000000    0.000000    0.000000
   -5   -3    5    3    2   -0.000000    0.000000    0.000000    0.000000    0.000000    0.000000
   -5   -3    5    1    3    0.000000    0.000000    0.000000    0.000000    0.000004    0.000000
   -5   -3    5    2    3    0.000000    0.000000    0.000000    0.000000    0.000000    0.000000
   -5   -3    5    3    3    0.000000    0.000000   -0.000000    0.000000    0.000000    0.000000
   -5   -2   -5    1    1    0.000000    0.000000    0.000000    0.000000    0.000000    0.000000
   -5   -2   -5    2    1    0.000014    0.000000    0.000000    0.000000    0.000000   -0.000000
   -5   -2   -5    3    1   -0.000000   -0.000000    0.000000   -0.000000    0.000014    0.000000
   -5   -2   -5    1    2    0.000014    0.000000   -0.000000   -0.000000   -0.000000   -0.000000
   -5   -2   -5    2    2    0.000000    0.000000    0.000000   -0.000000    0.000000    0.000000
   -5   -2   -5    3    2   -0.000000   -0.000000    0.000000   -0.000000   -0.000000    0.000000
   -5   -2   -5    1    3    0.000000   -0.000000    0.000000    0.000000    0.000014   -0.000000
   -5   -2   -5    2    3    0.000000    0.000000    0.000000   -0.000000   -0.000000   -0.000000
   -5   -2   -5    3    3    0.000000    0.000000    0.000000   -0.000000    0.000000    0.000000
   -5   -2   -4    1    1    0.000000    0.000000    0.000000   -0.000000   -0.000000   -0.000000
   -5   -2   -4    2    1    0.000004    0.000000   -0.000000    0.000000   -0.000000    0.000000
   -5   -2   -4    3    1    0.000000   -0.000000    0.000001   -0.000000    0.000013    0.000000
   -5   -2   -4    1    2    0.000004   -0.000000   -0.000000   -0.000000    0.000000   -0.000000
   -5   -2   -4    2    2    0.000000    0.000000    0.000000    0.000000   -0.000000   -0.000000
   -5   -2   -4    3    2   -0.000000    0.000000    0.000000    0.000000    0.000000   -0.000000
   -5   -2   -4    1    3   -0.000000    0.000000   -0.000001   -0.000000    0.000013    0.000000
   -5   -2   -4    2    3   -0.000000   -0.000000   -0.000000    0.000000    0.000000    0.000000
   -5   -2   -4    3    3    0.000000   -0.000000    0.000000    0.000000   -0.000000   -0.000000
   -5   -2   -3    1    1   -0.000000   -0.000000   -0.000000    0.000000    0.000000    0.000000
   -5   -2   -3    2    1    0.000022   -0.000000    0.000000    0.000000    0.000000   -0.000000
   -5   -2   -3    3    1    0.000003    0.000000    0.000009   -0.000000    0.000003    0.000000
   -5   -2   -3    1    2    0.000022   -0.000000    0.000000    0.000000    0.000000    0.000000
   -5   -2   -3    2    2    0.000000   -0.000000    0.000000    0.000000   -0.000000    0.000000
   -5   -2   -3    3    2   -0.000000    0.000000    0.000000    0.000000   -0.000000   -0.000000
   -5   -2   -3    1    3   -0.000003    0.000000   -0.000014   -0.000000    0.000006   -0.000000
   -5   -2   -3    2    3   -0.000000    0.000000    0.000000   -0.000000   -0.000000   -0.000000
   -5   -2   -3    3    3    0.000000    0.000000    0.000000    0.000000   -0.000000   -0.000000
   -5   -2   -2    1    1    0.000000    0.000000    0.000000    0.000000   -0.000000    0.000000
   -5   -2   -2    2    1    0.000011    0.000000   -0.000000    0.000000    0.000000    0.000000
   -5   -2   -2    3    1   -0.000000   -0.000000    0.000008   -0.000000   -0.000016   -0.000000
   -5   -2   -2    1    2    0.000011    0.000000    0.000000   -0.000000    0.000000    0.000000
   -5   -2   -2    2    2    0.000000    0.000000   -0.000000    0.000000    0.000000    0.000000
   -5   -2   -2    3    2    0.000011    0.000000   -0.000000    0.000000    0.000000    0.000000
   -5   -2   -2    1    3   -0.000000   -0.000000   -0.000016    0.000000    0.000008   -0.000000
   -5   -2   -2    2    3    0.000011    0.000000   -0.000000   -0.000000    0.000000   -0.000000
   -5   -2   -2    3    3    0.000000   -0.000000    0.000000   -0.000000   -0.000000    0.000000
   -5   -2   -1    1    1    0.000000    0.000000   -0.000000    0.000000    0.000000    0.000000
   -5   -2   -1    2    1   -0.000010    0.000000    0.000000    0.000000    0.000000   -0.000000
   -5   -2   -1    3    1    0.000019   -0.000000    0.000074   -0.000000   -0.000046   -0.000000
   -5   -2   -1    1    2   -0.000010   -0.000000   -0.000000    0.000000    0.000000    0.000000
   -5   -2   -1    2    2    0.000000    0.000000   -0.000000    0.000000   -0.000000    0.000000
   -5   -2   -1    3    2    0.000010    0.000000    0.000000    0.000000   -0.000000   -0.000000
   -5   -2   -1    1    3   -0.000019   -0.000000   -0.000080    0.000000    0.000041    0.000000
   -5   -2   -1    2    3    0.000010   -0.000000   -0.000000   -0.000000   -0.000000   -0.000000
   -5   -2   -1    3    3   -0.000000    0.000000    0.000000   -0.000000    0.000000    0.000000
   -5   -2    0    1    1   -0.000000   -0.000000    0.000000    0.000000   -0.000000   -0.000000
   -5   -2    0    2    1    0.000010   -0.000000   -0.000000    0.000000    0.000000   -0.000000
   -5   -2    0    3    1    0.000000    0.000000   -0.000000    0.000000   -0.000036   -0.000000
   -5   -2    0    1    2    0.000010   -0.000000   -0.000000    0.000000    0.000000   -0.000000
   -5   -2    0    2    2    0.000000   -0.000000   -0.000000   -0.000000    0.000000   -0.000000
   -5   -2    0    3    2   -0.000000   -0.000000    0.000000    0.000000   -0.000000   -0.000000
   -5   -2    0    1    3   -0.000000    0.000000   -0.000000    0.000000    0.000036    0.000000
   -5   -2    0    2    3   -0.000000   -0.000000   -0.000000    0.000000    0.000000    0.000000
   -5   -2    0    3    3    0.000000    0.000000   -0.000000    0.000000   -0.000000    0.000000
   -5   -2    1    1    1   -0.000000   -0.000000    0.000000    0.000000    0.000000    0.000000
   -5   -2    1    2    1   -0.000010   -0.000000    0.000000    0.000000   -0.000000   -0.000000
   -5   -2    1    3    1   -0.000019    0.000000   -0.000074   -0.000000   -0.000054    0.000000
   -5   -2    1    1    2   -0.000010   -0.000000    0.000000    0.000000   -0.000000    0.000000
   -5   -2    1    2    2    0.000000   -0.000000    0.000000    0.000000   -0.000000    0.000000
   -5   -2    1    3    2   -0.000010   -0.000000   -0.000000    0.000000    0.000000    0.000000
   -5   -2    1    1    3    0.000019    0.000000    0.000080    0.000000    0.000054   -0.000000
   -5   -2    1    2    3   -0.000010   -0.000000    0.000000    0.000000   -0.000000    0.000000
   -5   -2    1    3    3   -0.000000   -0.000000   -0.000000    0.000000    0.000000   -0.000000
   -5   -2    2    1    1    0.000000    0.000000   -0.000000    0.000000   -0.000000   -0.000000
   -5   -2    2    2    1    0.000011   -0.000000    0.000000   -0.000000    0.000000    0.000000
   -5   -2    2    3    1   -0.000000    0.000000   -0.000008   -0.000000   -0.000021   -0.000000
   -5   -2    2    1    2    0.000011   -0.000000    0.000000   -0.000000    0.000000    0.000000
   -5   -2    2    2    2    0.000000    0.000000   -0.000000   -0.000000   -0.000000   -0.000000
   -5   -2    2    3    2   -0.000011    0.000000    0.000000    0.000000   -0.000000   -0.000000
   -5   -2    2    1    3   -0.000000   -0.000000    0.000016    0.000000    0.000018    0.000000
   -5   -2    2    2    3   -0.000011   -0.000000    0.000000   -0.000000    0.000000    0.000000
   -5   -2    2    3    3    0.000000    0.000000   -0.000000    0.000000    0.000000    0.000000
   -5   -2    3    1    1   -0.000000   -0.000000   -0.000000   -0.000000   -0.000000   -0.000000
   -5   -2    3    2    1    0.000022    0.000000   -0.000000    0.000000    0.000000   -0.000000
   -5   -2    3    3    1   -0.000003    0.000000   -0.000009    0.000000   -0.000001    0.000000
   -5   -2    3    1    2    0.000022   -0.000000   -0.000000    0.000000    0.000000   -0.000000
   -5   -2    3    2    2   -0.000000    0.000000    0.000000    0.000000   -0.000000    0.000000
   -5   -2    3    3    2    0.000000    0.000000    0.000000   -0.000000    0.000000   -0.000000
   -5   -2    3    1    3    0.000003   -0.000000    0.000014   -0.000000    0.000006   -0.000000
   -5   -2    3    2    3    0.000000   -0.000000    0.000000   -0.000000    0.000000   -0.000000
   -5   -2    3    3    3    0.000000   -0.000000    0.000000    0.000000   -0.000000    0.000000
   -5   -2    4    1    1   -0.000000   -0.000000    0.000000   -0.000000    0.000000   -0.000000
   -5   -2    4    2    1    0.000004    0.000000    0.000000    0.000000    0.000000   -0.000000
   -5   -2    4    3    1   -0.000000   -0.000000   -0.000001    0.000000    0.000010   -0.000000
   -5   -2    4    1    2    0.000004    0.000000   -0.000000    0.000000    0.000000    0.000000
   -5   -2    4    2    2    0.000000   -0.000000   -0.000000    0.000000   -0.000000    0.000000
   -5   -2    4    3    2    0.000000   -0.000000    0.000000   -0.000000    0.000000   -0.000000
   -5   -2    4    1    3    0.000000    0.000000    0.000001   -0.000000    0.000010   -0.000000
   -5   -2    4    2    3    0.000000    0.000000    0.000000    0.000000   -0.000000   -0.000000
   -5   -2    4    3    3   -0.000000    0.000000    0.000000   -0.000000    0.000000   -0.000000
   -5   -2    5    1    1    0.000000    0.000000    0.000000    0.000000    0.000000    0.000000
   -5   -2    5    2    1    0.000014    0.000000    0.000000    0.000000    0.000000   -0.000000
   -5   -2    5    3    1   -0.000000   -0.000000    0.000000   -0.000000    0.000014    0.000000
   -5   -2    5    1    2    0.000014    0.000000   -0.000000   -0.000000   -0.000000   -0.000000
   -5   -2    5    2    2    0.000000    0.000000    0.000000   -0.000000    0.000000    0.000000
   -5   -2    5    3    2   -0.000000   -0.000000    0.000000   -0.000000   -0.000000    0.000000
   -5   -2    5    1    3    0.000000   -0.000000    0.000000    0.000000    0.000014   -0.000000
   -5   -2    5    2    3    0.000000    0.000000    0.000000   -0.000000   -0.000000   -0.000000
   -5   -2    5    3    3    0.000000    0.000000    0.000000   -0.000000    0.000000    0.000000
   -5   -1   -5    1    1    0.000000    0.000000    0.000000    0.000000    0.000000    0.000000
   -5   -1   -5    2    1    0.000022    0.000000    0.000000   -0.000000   -0.000000   -0.000000
   -5   -1   -5    3    1   -0.000000   -0.000000    0.000000    0.000000    0.000022    0.000000
   -5   -1   -5    1    2    0.000022   -0.000000    0.000000    0.000000    0.000000   -0.000000
   -5   -1   -5    2    2    0.000000    0.000000   -0.000000   -0.000000    0.000000    0.000000
   -5   -1   -5    3    2    0.000000   -0.000000   -0.000000   -0.000000   -0.000000   -0.000000
   -5   -1   -5    1    3   -0.000000    0.000000    0.000000    0.000000    0.000022    0.000000
   -5   -1   -5    2    3    0.000000   -0.000000   -0.000000   -0.000000    0.000000   -0.000000
   -5   -1   -5    3    3    0.000000    0.000000   -0.000000   -0.000000    0.000000    0.000000
   -5   -1   -4    1    1   -0.000000   -0.000000    0.000000   -0.000000    0.000000   -0.000000
   -5   -1   -4    2    1    0.000013    0.000000    0.000000   -0.000000    0.000000   -0.000000
   -5   -1   -4    3    1   -0.000004   -0.000000    0.000004    0.000000    0.000019   -0.000000
   -5   -1   -4    1    2    0.000013    0.000000   -0.000000    0.000000   -0.000000    0.000000
   -5   -1   -4    2    2    0.000000    0.000000    0.000000   -0.000000    0.000000    0.000000
   -5   -1   -4    3    2   -0.000004    0.000000   -0.000000   -0.000000    0.000000    0.000000
   -5   -1   -4    1    3    0.000004    0.000000   -0.000005   -0.000000    0.000019    0.000000
   -5   -1   -4    2    3   -0.000004    0.000000    0.000000   -0.000000    0.000000    0.000000
   -5   -1   -4    3    3    0.000000   -0.000000   -0.000000    0.000000    0.000000   -0.000000
   -5   -1   -3    1    1    0.000000    0.000000    0.000000    0.000000   -0.000000   -0.000000
   -5   -1   -3    2    1    0.000036   -0.000000    0.000000   -0.000000   -0.000000   -0.000000
   -5   -1   -3    3    1   -0.000008   -0.000000    0.000025   -0.000000   -0.000007    0.000000
   -5   -1   -3    1    2    0.000036    0.000000   -0.000000    0.000000    0.000000   -0.000000
   -5   -1   -3    2    2    0.000000   -0.000000    0.000000   -0.000000    0.000000   -0.000000
   -5   -1   -3    3    2   -0.000004    0.000000   -0.000000    0.000000    0.000000    0.000000
   -5   -1   -3    1    3    0.000008   -0.000000   -0.000029   -0.000000    0.000021    0.000000
   -5   -1   -3    2    3   -0.000004   -0.000000    0.000000    0.000000    0.000000   -0.000000
   -5   -1   -3    3    3    0.000000    0.000000   -0.000000    0.000000    0.000000    0.000000
   -5   -1   -2    1    1    0.000000    0.000000   -0.000000   -0.000000   -0.000000   -0.000000
   -5   -1   -2    2    1    0.000010    0.000000   -0.000000   -0.000000    0.000000   -0.000000
   -5   -1   -2    3    1   -0.000019    0.000000    0.000041   -0.000000   -0.000080    0.000000
   -5   -1   -2    1    2    0.000010    0.000000    0.000000    0.000000   -0.000000    0.000000
   -5   -1   -2    2    2    0.000000    0.000000    0.000000   -0.000000    0.000000   -0.000000
   -5   -1   -2    3    2   -0.000010    0.000000   -0.000000    0.000000    0.000000    0.000000
   -5   -1   -2    1    3    0.000019   -0.000000   -0.000046   -0.000000    0.000074   -0.000000
   -5   -1   -2    2    3   -0.000010   -0.000000   -0.000000    0.000000    0.000000    0.000000
   -5   -1   -2    3    3    0.000000   -0.000000    0.000000    0.000000   -0.000000   -0.000000
   -5   -1   -1    1    1   -0.000000   -0.000000    0.000000    0.000000    0.000000    0.000000
   -5   -1   -1    2    1    0.000003    0.000000   -0.000000   -0.000000   -0.000000    0.000000
   -5   -1   -1    3    1   -0.000000    0.000000    0.000099   -0.000000   -0.000100    0.000000
   -5   -1   -1    1    2    0.000003   -0.000000   -0.000000   -0.000000   -0.000000   -0.000000
   -5   -1   -1    2    2    0.000000    0.000000    0.000000   -0.000000    0.000000   -0.000000
   -5   -1   -1    3    2    0.000003    0.000000   -0.000000   -0.000000    0.000000    0.000000
   -5   -1   -1    1    3   -0.000000   -0.000000   -0.000100    0.000000    0.000099    0.000000
   -5   -1   -1    2    3    0.000003    0.000000    0.000000    0.000000   -0.000000   -0.000000
   -5   -1   -1    3    3   -0.000000    0.000000    0.000000   -0.000000   -0.000000   -0.000000
   -5   -1    0    1    1   -0.000000   -0.000000   -0.000000    0.000000   -0.000000    0.000000
   -5   -1    0    2    1    0.000057    0.000000   -0.000000   -0.000000   -0.000000   -0.000000
   -5   -1    0    3    1    0.000000   -0.000000    0.000000    0.000000   -0.000173   -0.000000
   -5   -1    0    1    2    0.000057   -0.000000   -0.000000    0.000000   -0.000000    0.000000
   -5   -1    0    2    2   -0.000000   -0.000000   -0.000000   -0.000000    0.000000    0.000000
   -5   -1    0    3    2   -0.000000    0.000000    0.000000   -0.000000    0.000000    0.000000
   -5   -1    0    1    3   -0.000000   -0.000000    0.000000   -0.000000    0.000173    0.000000
   -5   -1    0    2    3   -0.000000    0.000000    0.000000   -0.000000    0.000000   -0.000000
   -5   -1    0    3    3    0.000000    0.000000   -0.000000   -0.000000    0.000000    0.000000
   -5   -1    1    1    1    0.000000    0.000000    0.000000    0.000000    0.000000    0.000000
   -5   -1    1    2    1    0.000003    0.000000   -0.000000   -0.000000   -0.000000    0.000000
   -5   -1    1    3    1    0.000000    0.000000   -0.000099    0.000000   -0.000123    0.000000
   -5   -1    1    1    2    0.000003   -0.000000    0.000000    0.000000    0.000000   -0.000000
   -5   -1    1    2    2    0.000000    0.000000    0.000000    0.000000    0.000000    0.000000
   -5   -1    1    3    2   -0.000003   -0.000000    0.000000    0.000000    0.000000    0.000000
   -5   -1    1    1    3   -0.000000   -0.000000    0.000100   -0.000000    0.000123    0.000000
   -5   -1    1    2    3   -0.000003   -0.000000   -0.000000   -0.000000   -0.000000    0.000000
   -5   -1    1    3    3   -0.000000   -0.000000   -0.000000    0.000000    0.000000   -0.000000
   -5   -1    2    1    1   -0.000000   -0.000000    0.000000   -0.000000    0.000000   -0.000000
   -5   -1    2    2    1    0.000010   -0.000000   -0.000000    0.000000   -0.000000   -0.000000
   -5   -1    2    3    1    0.000019    0.000000   -0.000041   -0.000000   -0.000125   -0.000000
   -5   -1    2    1    2    0.000010   -0.000000   -0.000000   -0.000000   -0.000000   -0.000000
   -5   -1    2    2    2   -0.000000   -0.000000   -0.000000   -0.000000    0.000000   -0.000000
   -5   -1    2    3    2    0.000010    0.000000   -0.000000    0.000000    0.000000    0.000000
   -5   -1    2    1    3   -0.000019    0.000000    0.000046    0.000000    0.000123    0.000000
   -5   -1    2    2    3    0.000010   -0.000000    0.000000   -0.000000    0.000000   -0.000000
   -5   -1    2    3    3    0.000000    0.000000   -0.000000    0.000000   -0.000000   -0.000000
   -5   -1    3    1    1   -0.000000   -0.000000   -0.000000    0.000000   -0.000000    0.000000
   -5   -1    3    2    1    0.000036    0.000000    0.000000    0.000000    0.000000    0.000000
   -5   -1    3    3    1    0.000008   -0.000000   -0.000025   -0.000000   -0.000033    0.000000
   -5   -1    3    1    2    0.000036    0.000000   -0.000000   -0.000000   -0.000000   -0.000000
   -5   -1    3    2    2   -0.000000   -0.000000    0.000000   -0.000000    0.000000    0.000000
   -5   -1    3    3    2    0.000004    0.000000   -0.000000   -0.000000   -0.000000    0.000000
   -5   -1    3    1    3   -0.000008    0.000000    0.000029    0.000000    0.000042   -0.000000
   -5   -1    3    2    3    0.000004    0.000000   -0.000000    0.000000   -0.000000    0.000000
   -5   -1    3    3    3    0.000000   -0.000000    0.000000   -0.000000   -0.000000    0.000000
   -5   -1    4    1    1    0.000000    0.000000   -0.000000   -0.000000   -0.000000   -0.000000
   -5   -1    4    2    1    0.000013   -0.000000   -0.000000   -0.000000   -0.000000   -0.000000
   -5   -1    4    3    1    0.000004   -0.000000   -0.000004   -0.000000    0.000005   -0.000000
   -5   -1    4    1    2    0.000013    0.000000    0.000000    0.000000    0.000000   -0.000000
   -5   -1    4    2    2    0.000000   -0.000000    0.000000    0.000000    0.000000   -0.000000
   -5   -1    4    3    2    0.000004    0.000000    0.000000   -0.000000    0.000000    0.000000
   -5   -1    4    1    3   -0.000004    0.000000    0.000005    0.000000    0.000025    0.000000
   -5   -1    4    2    3    0.000004    0.000000   -0.000000   -0.000000    0.000000    0.000000
   -5   -1    4    3    3   -0.000000    0.000000   -0.000000   -0.000000   -0.000000    0.000000
   -5   -1    5    1    1    0.000000    0.000000    0.000000    0.000000    0.000000    0.000000
   -5   -1    5    2    1    0.000022    0.000000    0.000000   -0.000000   -0.000000   -0.000000
   -5   -1    5    3    1   -0.000000   -0.000000    0.000000    0.000000    0.000022    0.000000
   -5   -1    5    1    2    0.000022   -0.000000    0.000000    0.000000    0.000000   -0.000000
   -5   -1    5    2    2   -0.000000    0.000000   -0.000000   -0.000000    0.000000    0.000000
   -5   -1    5    3    2    0.000000   -0.000000   -0.000000   -0.000000   -0.000000   -0.000000
   -5   -1    5    1    3   -0.000000    0.000000    0.000000    0.000000    0.000022    0.000000
   -5   -1    5    2    3    0.000000   -0.000000   -0.000000   -0.000000    0.000000   -0.000000
   -5   -1    5    3    3    0.000000    0.000000   -0.000000   -0.000000    0.000000    0.000000
   -5    0   -5    1    1   -0.000000    0.000000   -0.000000    0.000000   -0.000000    0.000000
   -5    0   -5    2    1   -0.000000   -0.000000    0.000000    0.000000   -0.000000    0.000000
   -5    0   -5    3    1    0.000000    0.000000    0.000000    0.000000   -0.000000    0.000000
   -5    0   -5    1    2    0.000000   -0.000000    0.000000   -0.000000    0.000000    0.000000
   -5    0   -5    2    2   -0.000000    0.000000    0.000000    0.000000   -0.000000    0.000000
   -5    0   -5    3    2    0.000000    0.000000    0.000000   -0.000000   -0.000000   -0.000000
   -5    0   -5    1    3   -0.000000    0.000000    0.000000   -0.000000    0.000000    0.000000
   -5    0   -5    2    3   -0.000000    0.000000    0.000000    0.000000    0.000000   -0.000000
   -5    0   -5    3    3    0.000000    0.000000   -0.000000    0.000000   -0.000000    0.000000
   -5    0   -4    1    1    0.000000   -0.000000   -0.000000    0.000000   -0.000000    0.000000
   -5    0   -4    2    1   -0.000000    0.000000   -0.000000   -0.000000    0.000000   -0.000000
   -5    0   -4    3    1    0.000000   -0.000000    0.000003    0.000000    0.000000    0.000000
   -5    0   -4    1    2    0.000000   -0.000000   -0.000000    0.000000   -0.000000   -0.000000
   -5    0   -4    2    2    0.000000   -0.000000    0.000000    0.000000   -0.000000    0.000000
   -5    0   -4    3    2    0.000006    0.000000    0.000000    0.000000   -0.000000    0.000000
   -5    0   -4    1    3    0.000000    0.000000   -0.000003   -0.000000   -0.000000   -0.000000
   -5    0   -4    2    3    0.000006    0.000000   -0.000000   -0.000000    0.000000   -0.000000
   -5    0   -4    3    3    0.000000   -0.000000   -0.000000    0.000000   -0.000000    0.000000
   -5    0   -3    1    1    0.000000    0.000000    0.000000   -0.000000   -0.000000   -0.000000
   -5    0   -3    2    1    0.000000    0.000000   -0.000000    0.000000    0.000000    0.000000
   -5    0   -3    3    1   -0.000000   -0.000000    0.000034   -0.000000   -0.000000    0.000000
   -5    0   -3    1    2    0.000000   -0.000000    0.000000    0.000000    0.000000    0.000000
   -5    0   -3    2    2    0.000000    0.000000   -0.000000    0.000000    0.000000    0.000000
   -5    0   -3    3    2    0.000021   -0.000000   -0.000000   -0.000000    0.000000   -0.000000
   -5    0   -3    1    3   -0.000000   -0.000000   -0.000034    0.000000   -0.000000    0.000000
   -5    0   -3    2    3    0.000021   -0.000000   -0.000000    0.000000   -0.000000   -0.000000
   -5    0   -3    3    3    0.000000    0.000000    0.000000   -0.000000    0.000000    0.000000
   -5    0   -2    1    1   -0.000000    0.000000    0.000000   -0.000000    0.000000    0.000000
   -5    0   -2    2    1   -0.000000   -0.000000    0.000000    0.000000    0.000000   -0.000000
   -5    0   -2    3    1    0.000000    0.000000    0.000036    0.000000    0.000000    0.000000
   -5    0   -2    1    2   -0.000000   -0.000000    0.000000    0.000000   -0.000000    0.000000
   -5    0   -2    2    2    0.000000    0.000000   -0.000000    0.000000   -0.000000    0.000000
   -5    0   -2    3    2    0.000010   -0.000000    0.000000   -0.000000    0.000000   -0.000000
   -5    0   -2    1    3   -0.000000   -0.000000   -0.000036    0.000000    0.000000   -0.000000
   -5    0   -2    2    3    0.000010    0.000000   -0.000000    0.000000   -0.000000    0.000000
   -5    0   -2    3    3    0.000000   -0.000000   -0.000000   -0.000000   -0.000000   -0.000000
   -5    0   -1    1    1   -0.000000   -0.000000   -0.000000   -0.000000    0.000000   -0.000000
   -5    0   -1    2    1   -0.000000   -0.000000    0.000000    0.000000   -0.000000   -0.000000
   -5    0   -1    3    1    0.000000    0.000000    0.000173   -0.000000   -0.000000    0.000000
   -5    0   -1    1    2   -0.000000    0.000000   -0.000000   -0.000000   -0.000000   -0.000000
   -5    0   -1    2    2    0.000000   -0.000000   -0.000000    0.000000   -0.000000    0.000000
   -5    0   -1    3    2    0.000057   -0.000000    0.000000    0.000000    0.000000   -0.000000
   -5    0   -1    1    3   -0.000000    0.000000   -0.000173    0.000000    0.000000    0.000000
   -5    0   -1    2    3    0.000057    0.000000    0.000000   -0.000000    0.000000    0.000000
   -5    0   -1    3    3   -0.000000    0.000000   -0.000000    0.000000   -0.000000   -0.000000
   -5    0    0    1    1    0.000000    0.000000   -0.000000    0.000000    0.000000    0.000000
   -5    0    0    2    1    0.000000   -0.000000   -0.000000   -0.000000   -0.000000   -0.000000
   -5    0    0    3    1    0.000000   -0.000000    0.000000   -0.000000    0.000000   -0.000000
   -5    0    0    1    2   -0.000000   -0.000000   -0.000000    0.000000   -0.000000    0.000000
   -5    0    0    2    2    0.000000    0.000000   -0.000000    0.000000   -0.000000    0.000000
   -5    0    0    3    2   -0.000000    0.000000    0.000000    0.000000   -0.000000   -0.000000
   -5    0    0    1    3   -0.000000   -0.000000    0.000000    0.000000    0.000000    0.000000
   -5    0    0    2    3    0.000000    0.000000    0.000000   -0.000000   -0.000000    0.000000
   -5    0    0    3    3    0.000000    0.000000   -0.000000    0.000000   -0.000000    0.000000
   -5    0    1    1    1   -0.000000    0.000000   -0.000000    0.000000    0.000000    0.000000
   -5    0    1    2    1    0.000000    0.000000   -0.000000    0.000000   -0.000000    0.000000
   -5    0    1    3    1    0.000000    0.000000   -0.000173   -0.000000    0.000000   -0.000000
   -5    0    1    1    2    0.000000   -0.000000    0.000000   -0.000000   -0.000000    0.000000
   -5    0    1    2    2   -0.000000    0.000000   -0.000000   -0.000000   -0.000000   -0.000000
   -5    0    1    3    2   -0.000057    0.000000    0.000000    0.000000    0.000000   -0.000000
   -5    0    1    1    3   -0.000000    0.000000    0.000173    0.000000   -0.000000   -0.000000
   -5    0    1    2    3   -0.000057   -0.000000    0.000000   -0.000000    0.000000   -0.000000
   -5    0    1    3    3   -0.000000   -0.000000   -0.000000   -0.000000   -0.000000    0.000000
   -5    0    2    1    1   -0.000000   -0.000000    0.000000    0.000000    0.000000   -0.000000
   -5    0    2    2    1    0.000000   -0.000000    0.000000   -0.000000   -0.000000    0.000000
   -5    0    2    3    1    0.000000   -0.000000   -0.000036   -0.000000   -0.000000    0.000000
   -5    0    2    1    2    0.000000   -0.000000    0.000000   -0.000000    0.000000    0.000000
   -5    0    2    2    2   -0.000000   -0.000000   -0.000000   -0.000000   -0.000000   -0.000000
   -5    0    2    3    2   -0.000010    0.000000   -0.000000   -0.000000   -0.000000    0.000000
   -5    0    2    1    3   -0.000000    0.000000    0.000036   -0.000000   -0.000000   -0.000000
   -5    0    2    2    3   -0.000010   -0.000000    0.000000    0.000000    0.000000    0.000000
   -5    0    2    3    3    0.000000    0.000000   -0.000000    0.000000   -0.000000    0.000000
   -5    0    3    1    1    0.000000   -0.000000    0.000000    0.000000   -0.000000    0.000000
   -5    0    3    2    1   -0.000000   -0.000000    0.000000   -0.000000    0.000000    0.000000
   -5    0    3    3    1    0.000000   -0.000000   -0.000034   -0.000000    0.000000    0.000000
   -5    0    3    1    2   -0.000000    0.000000   -0.000000   -0.000000   -0.000000    0.000000
   -5    0    3    2    2    0.000000    0.000000   -0.000000   -0.000000    0.000000   -0.000000
   -5    0    3    3    2   -0.000021   -0.000000   -0.000000   -0.000000    0.000000    0.000000
   -5    0    3    1    3    0.000000   -0.000000    0.000034    0.000000    0.000000   -0.000000
   -5    0    3    2    3   -0.000021   -0.000000   -0.000000    0.000000   -0.000000   -0.000000
   -5    0    3    3    3    0.000000   -0.000000    0.000000    0.000000    0.000000   -0.000000
   -5    0    4    1    1    0.000000    0.000000   -0.000000   -0.000000   -0.000000   -0.000000
   -5    0    4    2    1   -0.000000   -0.000000   -0.000000   -0.000000    0.000000   -0.000000
   -5    0    4    3    1   -0.000000    0.000000   -0.000003    0.000000    0.000000   -0.000000
   -5    0    4    1    2    0.000000    0.000000   -0.000000    0.000000   -0.000000   -0.000000
   -5    0    4    2    2    0.000000    0.000000    0.000000   -0.000000   -0.000000   -0.000000
   -5    0    4    3    2   -0.000006    0.000000   -0.000000    0.000000    0.000000   -0.000000
   -5    0    4    1    3   -0.000000   -0.000000    0.000003   -0.000000   -0.000000    0.000000
   -5    0    4    2    3   -0.000006    0.000000    0.000000   -0.000000    0.000000    0.000000
   -5    0    4    3    3   -0.000000    0.000000   -0.000000   -0.000000   -0.000000   -0.000000
   -5    0    5    1    1   -0.000000    0.000000   -0.000000    0.000000   -0.000000    0.000000
   -5    0    5    2    1   -0.000000   -0.000000    0.000000    0.000000   -0.000000    0.000000
   -5    0    5    3    1    0.000000    0.000000    0.000000    0.000000   -0.000000    0.000000
   -5    0    5    1    2    0.000000   -0.000000    0.000000   -0.000000    0.000000    0.000000
   -5    0    5    2    2   -0.000000    0.000000    0.000000    0.000000   -0.000000    0.000000
   -5    0    5    3    2    0.000000    0.000000    0.000000   -0.000000   -0.000000   -0.000000
   -5    0    5    1    3   -0.000000    0.000000    0.000000   -0.000000    0.000000    0.000000
   -5    0    5    2    3   -0.000000    0.000000    0.000000    0.000000    0.000000   -0.000000
   -5    0    5    3    3    0.000000    0.000000   -0.000000    0.000000   -0.000000    0.000000
   -5    1   -5    1    1    0.000000   -0.000000    0.000000   -0.000000    0.000000    0.000000
   -5    1   -5    2    1   -0.000022   -0.000000    0.000000   -0.000000   -0.000000   -0.000000
   -5    1   -5    3    1    0.000000    0.000000    0.000000   -0.000000   -0.000022    0.000000
   -5    1   -5    1    2   -0.000022    0.000000    0.000000    0.000000    0.000000   -0.000000
   -5    1   -5    2    2    0.000000   -0.000000   -0.000000    0.000000    0.000000    0.000000
   -5    1   -5    3    2   -0.000000   -0.000000   -0.000000    0.000000   -0.000000   -0.000000
   -5    1   -5    1    3    0.000000   -0.000000    0.000000   -0.000000   -0.000022    0.000000
   -5    1   -5    2    3   -0.000000   -0.000000   -0.000000    0.000000    0.000000   -0.000000
   -5    1   -5    3    3    0.000000    0.000000   -0.000000    0.000000    0.000000    0.000000
   -5    1   -4    1    1    0.000000   -0.000000   -0.000000    0.000000   -0.000000    0.000000
   -5    1   -4    2    1   -0.000013    0.000000    0.000000   -0.000000   -0.000000   -0.000000
   -5    1   -4    3    1    0.000004    0.000000    0.000005   -0.000000   -0.000019   -0.000000
   -5    1   -4    1    2   -0.000013   -0.000000   -0.000000    0.000000    0.000000   -0.000000
   -5    1   -4    2    2    0.000000    0.000000    0.000000   -0.000000    0.000000    0.000000
   -5    1   -4    3    2   -0.000004    0.000000   -0.000000    0.000000   -0.000000    0.000000
   -5    1   -4    1    3   -0.000004   -0.000000   -0.000005    0.000000   -0.000019   -0.000000
   -5    1   -4    2    3   -0.000004    0.000000    0.000000   -0.000000   -0.000000    0.000000
   -5    1   -4    3    3   -0.000000   -0.000000   -0.000000    0.000000   -0.000000   -0.000000
   -5    1   -3    1    1   -0.000000    0.000000   -0.000000   -0.000000   -0.000000   -0.000000
   -5    1   -3    2    1   -0.000036    0.000000   -0.000000   -0.000000    0.000000    0.000000
   -5    1   -3    3    1    0.000008    0.000000    0.000034   -0.000000    0.000007   -0.000000
   -5    1   -3    1    2   -0.000036    0.000000    0.000000   -0.000000    0.000000    0.000000
   -5    1   -3    2    2    0.000000    0.000000    0.000000    0.000000    0.000000   -0.000000
   -5    1   -3    3    2   -0.000004    0.000000   -0.000000   -0.000000    0.000000    0.000000
   -5    1   -3    1    3   -0.000008   -0.000000   -0.000034    0.000000   -0.000021    0.000000
   -5    1   -3    2    3   -0.000004    0.000000   -0.000000    0.000000    0.000000    0.000000
   -5    1   -3    3    3    0.000000    0.000000    0.000000    0.000000   -0.000000   -0.000000
   -5    1   -2    1    1   -0.000000    0.000000    0.000000    0.000000    0.000000    0.000000
   -5    1   -2    2    1   -0.000010   -0.000000   -0.000000    0.000000   -0.000000    0.000000
   -5    1   -2    3    1    0.000019    0.000000    0.000054   -0.000000    0.000080    0.000000
   -5    1   -2    1    2   -0.000010   -0.000000   -0.000000   -0.000000    0.000000   -0.000000
   -5    1   -2    2    2    0.000000   -0.000000   -0.000000    0.000000    0.000000    0.000000
   -5    1   -2    3    2   -0.000010   -0.000000    0.000000    0.000000   -0.000000    0.000000
   -5    1   -2    1    3   -0.000019    0.000000   -0.000054    0.000000   -0.000074    0.000000
   -5    1   -2    2    3   -0.000010    0.000000   -0.000000   -0.000000    0.000000    0.000000
   -5    1   -2    3    3    0.000000   -0.000000   -0.000000   -0.000000   -0.000000    0.000000
   -5    1   -1    1    1    0.000000   -0.000000    0.000000   -0.000000    0.000000   -0.000000
   -5    1   -1    2    1   -0.000003   -0.000000    0.000000   -0.000000    0.000000    0.000000
   -5    1   -1    3    1    0.000000   -0.000000    0.000123    0.000000    0.000100   -0.000000
   -5    1   -1    1    2   -0.000003    0.000000   -0.000000    0.000000   -0.000000   -0.000000
   -5    1   -1    2    2    0.000000   -0.000000    0.000000   -0.000000    0.000000   -0.000000
   -5    1   -1    3    2    0.000003   -0.000000   -0.000000   -0.000000   -0.000000    0.000000
   -5    1   -1    1    3   -0.000000    0.000000   -0.000123   -0.000000   -0.000099   -0.000000
   -5    1   -1    2    3    0.000003   -0.000000    0.000000   -0.000000   -0.000000   -0.000000
   -5    1   -1    3    3   -0.000000    0.000000   -0.000000   -0.000000    0.000000    0.000000
   -5    1    0    1    1   -0.000000    0.000000   -0.000000   -0.000000   -0.000000   -0.000000
   -5    1    0    2    1   -0.000057   -0.000000   -0.000000   -0.000000   -0.000000   -0.000000
   -5    1    0    3    1    0.000000   -0.000000   -0.000000    0.000000    0.000173   -0.000000
   -5    1    0    1    2   -0.000057    0.000000   -0.000000    0.000000   -0.000000    0.000000
   -5    1    0    2    2   -0.000000    0.000000   -0.000000    0.000000    0.000000   -0.000000
   -5    1    0    3    2    0.000000    0.000000    0.000000    0.000000    0.000000    0.000000
   -5    1    0    1    3   -0.000000   -0.000000   -0.000000   -0.000000   -0.000173    0.000000
   -5    1    0    2    3    0.000000    0.000000   -0.000000    0.000000    0.000000   -0.000000
   -5    1    0    3    3    0.000000   -0.000000   -0.000000    0.000000    0.000000   -0.000000
   -5    1    1    1    1   -0.000000    0.000000    0.000000   -0.000000    0.000000   -0.000000
   -5    1    1    2    1   -0.000003   -0.000000   -0.000000    0.000000   -0.000000    0.000000
   -5    1    1    3    1    0.000000   -0.000000   -0.000123   -0.000000    0.000123   -0.000000
   -5    1    1    1    2   -0.000003    0.000000   -0.000000    0.000000   -0.000000   -0.000000
   -5    1    1    2    2   -0.000000    0.000000    0.000000    0.000000    0.000000    0.000000
   -5    1    1    3    2   -0.000003    0.000000    0.000000   -0.000000   -0.000000    0.000000
   -5    1    1    1    3    0.000000    0.000000    0.000123    0.000000   -0.000123   -0.000000
   -5    1    1    2    3   -0.000003    0.000000   -0.000000    0.000000    0.000000   -0.000000
   -5    1    1    3    3   -0.000000   -0.000000    0.000000    0.000000   -0.000000    0.000000
   -5    1    2    1    1    0.000000   -0.000000   -0.000000    0.000000   -0.000000    0.000000
   -5    1    2    2    1   -0.000010    0.000000    0.000000   -0.000000   -0.000000   -0.000000
   -5    1    2    3    1   -0.000019   -0.000000   -0.000054    0.000000    0.000125    0.000000
   -5    1    2    1    2   -0.000010    0.000000    0.000000    0.000000    0.000000   -0.000000
   -5    1    2    2    2    0.000000   -0.000000    0.000000    0.000000    0.000000    0.000000
   -5    1    2    3    2    0.000010   -0.000000   -0.000000   -0.000000   -0.000000   -0.000000
   -5    1    2    1    3    0.000019    0.000000    0.000054   -0.000000   -0.000123   -0.000000
   -5    1    2    2    3    0.000010    0.000000   -0.000000   -0.000000    0.000000    0.000000
   -5    1    2    3    3    0.000000    0.000000    0.000000   -0.000000   -0.000000    0.000000
   -5    1    3    1    1    0.000000   -0.000000    0.000000   -0.000000   -0.000000    0.000000
   -5    1    3    2    1   -0.000036    0.000000   -0.000000   -0.000000   -0.000000   -0.000000
   -5    1    3    3    1   -0.000008   -0.000000   -0.000034    0.000000    0.000033    0.000000
   -5    1    3    1    2   -0.000036   -0.000000   -0.000000    0.000000    0.000000    0.000000
   -5    1    3    2    2    0.000000    0.000000    0.000000    0.000000    0.000000    0.000000
   -5    1    3    3    2    0.000004   -0.000000    0.000000   -0.000000   -0.000000    0.000000
   -5    1    3    1    3    0.000008   -0.000000    0.000034    0.000000   -0.000042    0.000000
   -5    1    3    2    3    0.000004    0.000000   -0.000000   -0.000000    0.000000   -0.000000
   -5    1    3    3    3    0.000000   -0.000000   -0.000000   -0.000000    0.000000   -0.000000
   -5    1    4    1    1   -0.000000    0.000000    0.000000    0.000000    0.000000    0.000000
   -5    1    4    2    1   -0.000013    0.000000   -0.000000   -0.000000    0.000000    0.000000
   -5    1    4    3    1   -0.000004    0.000000   -0.000005    0.000000   -0.000005    0.000000
   -5    1    4    1    2   -0.000013    0.000000    0.000000    0.000000   -0.000000   -0.000000
   -5    1    4    2    2   -0.000000   -0.000000    0.000000    0.000000    0.000000   -0.000000
   -5    1    4    3    2    0.000004    0.000000    0.000000    0.000000   -0.000000    0.000000
   -5    1    4    1    3    0.000004   -0.000000    0.000005   -0.000000   -0.000025   -0.000000
   -5    1    4    2    3    0.000004    0.000000   -0.000000    0.000000   -0.000000    0.000000
   -5    1    4    3    3   -0.000000    0.000000   -0.000000   -0.000000    0.000000    0.000000
   -5    1    5    1    1    0.000000   -0.000000    0.000000   -0.000000    0.000000   -0.000000
   -5    1    5    2    1   -0.000022   -0.000000    0.000000   -0.000000   -0.000000   -0.000000
   -5    1    5    3    1    0.000000    0.000000    0.000000   -0.000000   -0.000022    0.000000
   -5    1    5    1    2   -0.000022    0.000000    0.000000    0.000000    0.000000   -0.000000
   -5    1    5    2    2   -0.000000   -0.000000   -0.000000    0.000000    0.000000   -0.000000
   -5    1    5    3    2   -0.000000   -0.000000   -0.000000    0.000000   -0.000000   -0.000000
   -5    1    5    1    3    0.000000   -0.000000    0.000000   -0.000000   -0.000022    0.000000
   -5    1    5    2    3   -0.000000   -0.000000   -0.000000    0.000000    0.000000   -0.000000
   -5    1    5    3    3    0.000000   -0.000000   -0.000000    0.000000    0.000000    0.000000
   -5    2   -5    1    1    0.000000   -0.000000    0.000000   -0.000000    0.000000    0.000000
   -5    2   -5    2    1   -0.000014    0.000000    0.000000    0.000000    0.000000   -0.000000
   -5    2   -5    3    1   -0.000000   -0.000000    0.000000    0.000000   -0.000014   -0.000000
   -5    2   -5    1    2   -0.000014    0.000000    0.000000    0.000000   -0.000000   -0.000000
   -5    2   -5    2    2    0.000000    0.000000    0.000000    0.000000    0.000000    0.000000
   -5    2   -5    3    2   -0.000000    0.000000   -0.000000   -0.000000    0.000000   -0.000000
   -5    2   -5    1    3    0.000000   -0.000000   -0.000000   -0.000000   -0.000014    0.000000
   -5    2   -5    2    3    0.000000   -0.000000   -0.000000   -0.000000    0.000000    0.000000
   -5    2   -5    3    3    0.000000    0.000000    0.000000    0.000000    0.000000    0.000000
   -5    2   -4    1    1   -0.000000    0.000000    0.000000    0.000000    0.000000    0.000000
   -5    2   -4    2    1   -0.000004    0.000000    0.000000    0.000000   -0.000000    0.000000
   -5    2   -4    3    1   -0.000000    0.000000    0.000002    0.000000   -0.000013    0.000000
   -5    2   -4    1    2   -0.000004    0.000000    0.000000   -0.000000   -0.000000   -0.000000
   -5    2   -4    2    2    0.000000    0.000000   -0.000000   -0.000000   -0.000000   -0.000000
   -5    2   -4    3    2   -0.000000    0.000000    0.000000   -0.000000    0.000000   -0.000000
   -5    2   -4    1    3    0.000000   -0.000000   -0.000002   -0.000000   -0.000013   -0.000000
   -5    2   -4    2    3   -0.000000   -0.000000    0.000000    0.000000    0.000000   -0.000000
   -5    2   -4    3    3   -0.000000   -0.000000    0.000000    0.000000    0.000000    0.000000
   -5    2   -3    1    1   -0.000000    0.000000   -0.000000    0.000000   -0.000000    0.000000
   -5    2   -3    2    1   -0.000022   -0.000000    0.000000    0.000000   -0.000000   -0.000000
   -5    2   -3    3    1   -0.000003   -0.000000    0.000018    0.000000   -0.000003   -0.000000
   -5    2   -3    1    2   -0.000022    0.000000   -0.000000   -0.000000   -0.000000   -0.000000
   -5    2   -3    2    2    0.000000   -0.000000    0.000000   -0.000000   -0.000000   -0.000000
   -5    2   -3    3    2   -0.000000   -0.000000    0.000000   -0.000000   -0.000000   -0.000000
   -5    2   -3    1    3    0.000003    0.000000   -0.000020   -0.000000   -0.000006   -0.000000
   -5    2   -3    2    3   -0.000000    0.000000   -0.000000   -0.000000   -0.000000   -0.000000
   -5    2   -3    3    3    0.000000    0.000000    0.000000   -0.000000   -0.000000   -0.000000
   -5    2   -2    1    1    0.000000   -0.000000   -0.000000   -0.000000   -0.000000    0.000000
   -5    2   -2    2    1   -0.000011   -0.000000    0.000000   -0.000000    0.000000    0.000000
   -5    2   -2    3    1    0.000000   -0.000000    0.000018   -0.000000    0.000016    0.000000
   -5    2   -2    1    2   -0.000011   -0.000000   -0.000000   -0.000000    0.000000   -0.000000
   -5    2   -2    2    2    0.000000   -0.000000   -0.000000    0.000000   -0.000000    0.000000
   -5    2   -2    3    2    0.000011   -0.000000    0.000000   -0.000000    0.000000   -0.000000
   -5    2   -2    1    3    0.000000    0.000000   -0.000021    0.000000   -0.000008    0.000000
   -5    2   -2    2    3    0.000011    0.000000    0.000000    0.000000   -0.000000    0.000000
   -5    2   -2    3    3    0.000000   -0.000000   -0.000000   -0.000000    0.000000   -0.000000
   -5    2   -1    1    1   -0.000000    0.000000    0.000000   -0.000000    0.000000   -0.000000
   -5    2   -1    2    1    0.000010   -0.000000    0.000000   -0.000000   -0.000000   -0.000000
   -5    2   -1    3    1   -0.000019    0.000000    0.000123   -0.000000    0.000046   -0.000000
   -5    2   -1    1    2    0.000010   -0.000000    0.000000    0.000000   -0.000000    0.000000
   -5    2   -1    2    2    0.000000    0.000000    0.000000   -0.000000   -0.000000   -0.000000
   -5    2   -1    3    2    0.000010   -0.000000   -0.000000   -0.000000    0.000000   -0.000000
   -5    2   -1    1    3    0.000019    0.000000   -0.000125    0.000000   -0.000041   -0.000000
   -5    2   -1    2    3    0.000010   -0.000000   -0.000000   -0.000000    0.000000   -0.000000
   -5    2   -1    3    3   -0.000000    0.000000   -0.000000   -0.000000    0.000000    0.000000
   -5    2    0    1    1   -0.000000    0.000000    0.000000   -0.000000   -0.000000    0.000000
   -5    2    0    2    1   -0.000010   -0.000000   -0.000000   -0.000000    0.000000    0.000000
   -5    2    0    3    1    0.000000    0.000000    0.000000   -0.000000    0.000036   -0.000000
   -5    2    0    1    2   -0.000010   -0.000000    0.000000   -0.000000    0.000000    0.000000
   -5    2    0    2    2   -0.000000    0.000000   -0.000000    0.000000    0.000000    0.000000
   -5    2    0    3    2    0.000000   -0.000000   -0.000000   -0.000000    0.000000   -0.000000
   -5    2    0    1    3   -0.000000    0.000000   -0.000000   -0.000000   -0.000036    0.000000
   -5    2    0    2    3    0.000000   -0.000000    0.000000   -0.000000   -0.000000    0.000000
   -5    2    0    3    3    0.000000    0.000000   -0.000000   -0.000000   -0.000000   -0.000000
   -5    2    1    1    1    0.000000   -0.000000   -0.000000   -0.000000    0.000000   -0.000000
   -5    2    1    2    1    0.000010   -0.000000   -0.000000    0.000000    0.000000   -0.000000
   -5    2    1    3    1    0.000019   -0.000000   -0.000123   -0.000000    0.000054   -0.000000
   -5    2    1    1    2    0.000010    0.000000    0.000000    0.000000    0.000000    0.000000
   -5    2    1    2    2    0.000000   -0.000000   -0.000000   -0.000000   -0.000000   -0.000000
   -5    2    1    3    2   -0.000010   -0.000000    0.000000    0.000000   -0.000000    0.000000
   -5    2    1    1    3   -0.000019   -0.000000    0.000125    0.000000   -0.000054    0.000000
   -5    2    1    2    3   -0.000010    0.000000    0.000000   -0.000000   -0.000000    0.000000
   -5    2    1    3    3   -0.000000   -0.000000    0.000000    0.000000    0.000000   -0.000000
   -5    2    2    1    1    0.000000   -0.000000    0.000000   -0.000000   -0.000000   -0.000000
   -5    2    2    2    1   -0.000011    0.000000   -0.000000    0.000000    0.000000   -0.000000
   -5    2    2    3    1    0.000000   -0.000000   -0.000018    0.000000    0.000021   -0.000000
   -5    2    2    1    2   -0.000011    0.000000    0.000000   -0.000000    0.000000   -0.000000
   -5    2    2    2    2    0.000000   -0.000000   -0.000000   -0.000000    0.000000   -0.000000
   -5    2    2    3    2   -0.000011    0.000000   -0.000000   -0.000000    0.000000   -0.000000
   -5    2    2    1    3    0.000000   -0.000000    0.000021   -0.000000   -0.000018   -0.000000
   -5    2    2    2    3   -0.000011    0.000000   -0.000000    0.000000   -0.000000   -0.000000
   -5    2    2    3    3    0.000000    0.000000    0.000000    0.000000   -0.000000   -0.000000
   -5    2    3    1    1   -0.000000    0.000000   -0.000000   -0.000000    0.000000   -0.000000
   -5    2    3    2    1   -0.000022   -0.000000    0.000000   -0.000000   -0.000000    0.000000
   -5    2    3    3    1    0.000003    0.000000   -0.000018    0.000000    0.000001   -0.000000
   -5    2    3    1    2   -0.000022   -0.000000   -0.000000   -0.000000    0.000000   -0.000000
   -5    2    3    2    2   -0.000000    0.000000    0.000000   -0.000000   -0.000000   -0.000000
   -5    2    3    3    2    0.000000    0.000000   -0.000000    0.000000   -0.000000   -0.000000
   -5    2    3    1    3   -0.000003    0.000000    0.000020   -0.000000   -0.000006    0.000000
   -5    2    3    2    3    0.000000    0.000000    0.000000   -0.000000    0.000000    0.000000
   -5    2    3    3    3    0.000000   -0.000000    0.000000   -0.000000   -0.000000    0.000000
   -5    2    4    1    1    0.000000   -0.000000    0.000000    0.000000   -0.000000    0.000000
   -5    2    4    2    1   -0.000004   -0.000000   -0.000000    0.000000   -0.000000   -0.000000
   -5    2    4    3    1    0.000000    0.000000   -0.000002    0.000000   -0.000010    0.000000
   -5    2    4    1    2   -0.000004    0.000000   -0.000000   -0.000000    0.000000    0.000000
   -5    2    4    2    2   -0.000000   -0.000000    0.000000   -0.000000   -0.000000    0.000000
   -5    2    4    3    2    0.000000   -0.000000   -0.000000    0.000000    0.000000    0.000000
   -5    2    4    1    3   -0.000000   -0.000000    0.000002    0.000000   -0.000010    0.000000
   -5    2    4    2    3    0.000000    0.000000    0.000000   -0.000000   -0.000000   -0.000000
   -5    2    4    3    3   -0.000000    0.000000    0.000000   -0.000000   -0.000000    0.000000
   -5    2    5    1    1    0.000000   -0.000000    0.000000   -0.000000    0.000000   -0.000000
   -5    2    5    2    1   -0.000014    0.000000    0.000000    0.000000    0.000000   -0.000000
   -5    2    5    3    1   -0.000000   -0.000000    0.000000    0.000000   -0.000014   -0.000000
   -5    2    5    1    2   -0.000014    0.000000    0.000000    0.000000   -0.000000   -0.000000
   -5    2    5    2    2    0.000000   -0.000000    0.000000    0.000000    0.000000   -0.000000
   -5    2    5    3    2   -0.000000    0.000000   -0.000000   -0.000000    0.000000   -0.000000
   -5    2    5    1    3    0.000000   -0.000000   -0.000000   -0.000000   -0.000014    0.000000
   -5    2    5    2    3    0.000000   -0.000000   -0.000000   -0.000000    0.000000    0.000000
   -5    2    5    3    3    0.000000   -0.000000    0.000000    0.000000    0.000000   -0.000000
   -5    3   -5    1    1    0.000000    0.000000   -0.000000    0.000000    0.000000    0.000000
   -5    3   -5    2    1   -0.000004    0.000000    0.000000   -0.000000    0.000000    0.000000
   -5    3   -5    3    1   -0.000000    0.000000   -0.000000    0.000000   -0.000004    0.000000
   -5    3   -5    1    2   -0.000004    0.000000    0.000000   -0.000000    0.000000   -0.000000
   -5    3   -5    2    2    0.000000    0.000000    0.000000    0.000000    0.000000    0.000000
   -5    3   -5    3    2   -0.000000    0.000000   -0.000000    0.000000   -0.000000    0.000000
   -5    3   -5    1    3    0.000000    0.000000   -0.000000    0.000000   -0.000004    0.000000
   -5    3   -5    2    3    0.000000    0.000000   -0.000000    0.000000   -0.000000    0.000000
   -5    3   -5    3    3    0.000000    0.000000   -0.000000   -0.000000    0.000000    0.000000
   -5    3   -4    1    1    0.000000    0.000000    0.000000   -0.000000    0.000000    0.000000
   -5    3   -4    2    1    0.000005    0.000000   -0.000000   -0.000000   -0.000000   -0.000000
   -5    3   -4    3    1    0.000001    0.000000    0.000001   -0.000000   -0.000003    0.000000
   -5    3   -4    1    2    0.000005    0.000000    0.000000    0.000000    0.000000   -0.000000
   -5    3   -4    2    2    0.000000    0.000000   -0.000000   -0.000000   -0.000000   -0.000000
   -5    3   -4    3    2    0.000004    0.000000   -0.000000   -0.000000    0.000000    0.000000
   -5    3   -4    1    3   -0.000001   -0.000000    0.000000   -0.000000   -0.000003   -0.000000
   -5    3   -4    2    3    0.000004   -0.000000    0.000000    0.000000   -0.000000    0.000000
   -5    3   -4    3    3   -0.000000   -0.000000   -0.000000   -0.000000    0.000000    0.000000
   -5    3   -3    1    1   -0.000000   -0.000000    0.000000    0.000000   -0.000000    0.000000
   -5    3   -3    2    1   -0.000007   -0.000000   -0.000000   -0.000000    0.000000   -0.000000
   -5    3   -3    3    1   -0.000000   -0.000000    0.000007    0.000000    0.000002   -0.000000
   -5    3   -3    1    2   -0.000007    0.000000    0.000000    0.000000    0.000000   -0.000000
   -5    3   -3    2    2    0.000000   -0.000000    0.000000    0.000000    0.000000    0.000000
[...]
    5    3    5    1    2   -0.000004    0.000000    0.000000   -0.000000    0.000000   -0.000000
    5    3    5    2    2    0.000000   -0.000000    0.000000    0.000000    0.000000   -0.000000
    5    3    5    3    2   -0.000000    0.000000   -0.000000    0.000000   -0.000000    0.000000
    5    3    5    1    3    0.000000    0.000000   -0.000000    0.000000   -0.000004    0.000000
    5    3    5    2    3    0.000000    0.000000   -0.000000    0.000000   -0.000000    0.000000
    5    3    5    3    3    0.000000   -0.000000   -0.000000   -0.000000    0.000000   -0.000000
    5    4   -5    1    1    0.000000    0.000000   -0.000000   -0.000000    0.000000   -0.000000
    5    4   -5    2    1   -0.000003   -0.000000    0.000000    0.000000    0.000000    0.000000
    5    4   -5    3    1   -0.000000    0.000000    0.000000   -0.000000   -0.000003   -0.000000
    5    4   -5    1    2   -0.000003    0.000000   -0.000000   -0.000000    0.000000   -0.000000
    5    4   -5    2    2    0.000000    0.000000   -0.000000    0.000000    0.000000   -0.000000
    5    4   -5    3    2   -0.000000   -0.000000   -0.000000   -0.000000   -0.000000    0.000000
    5    4   -5    1    3   -0.000000   -0.000000   -0.000000   -0.000000   -0.000003   -0.000000
    5    4   -5    2    3   -0.000000   -0.000000   -0.000000   -0.000000   -0.000000   -0.000000
    5    4   -5    3    3    0.000000   -0.000000   -0.000000    0.000000    0.000000   -0.000000
    5    4   -4    1    1   -0.000000   -0.000000    0.000000    0.000000   -0.000000   -0.000000
    5    4   -4    2    1    0.000002    0.000000   -0.000000    0.000000   -0.000000    0.000000
    5    4   -4    3    1   -0.000000    0.000000    0.000002    0.000000   -0.000003    0.000000
    5    4   -4    1    2    0.000002   -0.000000   -0.000000    0.000000    0.000000   -0.000000
    5    4   -4    2    2    0.000000    0.000000   -0.000000   -0.000000    0.000000    0.000000
    5    4   -4    3    2   -0.000002   -0.000000    0.000000    0.000000    0.000000   -0.000000
    5    4   -4    1    3    0.000000    0.000000    0.000002    0.000000   -0.000003   -0.000000
    5    4   -4    2    3   -0.000002    0.000000    0.000000   -0.000000   -0.000000   -0.000000
    5    4   -4    3    3   -0.000000   -0.000000    0.000000    0.000000    0.000000    0.000000
    5    4   -3    1    1    0.000000    0.000000    0.000000   -0.000000    0.000000   -0.000000
    5    4   -3    2    1   -0.000004    0.000000   -0.000000    0.000000   -0.000000    0.000000
    5    4   -3    3    1   -0.000001    0.000000    0.000004    0.000000   -0.000001    0.000000
    5    4   -3    1    2   -0.000004    0.000000   -0.000000    0.000000    0.000000    0.000000
    5    4   -3    2    2    0.000000   -0.000000   -0.000000    0.000000   -0.000000    0.000000
    5    4   -3    3    2   -0.000005   -0.000000    0.000000    0.000000   -0.000000   -0.000000
    5    4   -3    1    3    0.000001    0.000000    0.000001    0.000000   -0.000002    0.000000
    5    4   -3    2    3   -0.000005   -0.000000    0.000000   -0.000000    0.000000    0.000000
    5    4   -3    3    3    0.000000    0.000000    0.000000   -0.000000    0.000000   -0.000000
    5    4   -2    1    1    0.000000    0.000000   -0.000000   -0.000000   -0.000000   -0.000000
    5    4   -2    2    1    0.000000    0.000000    0.000000    0.000000   -0.000000   -0.000000
    5    4   -2    3    1    0.000000   -0.000000    0.000010   -0.000000    0.000001    0.000000
    5    4   -2    1    2    0.000000    0.000000    0.000000    0.000000   -0.000000    0.000000
    5    4   -2    2    2    0.000000    0.000000    0.000000    0.000000   -0.000000    0.000000
    5    4   -2    3    2    0.000004   -0.000000   -0.000000   -0.000000   -0.000000   -0.000000
    5    4   -2    1    3   -0.000000    0.000000    0.000010   -0.000000   -0.000001   -0.000000
    5    4   -2    2    3    0.000004   -0.000000    0.000000    0.000000   -0.000000   -0.000000
    5    4   -2    3    3    0.000000   -0.000000    0.000000    0.000000    0.000000    0.000000
    5    4   -1    1    1   -0.000000   -0.000000   -0.000000    0.000000   -0.000000   -0.000000
    5    4   -1    2    1    0.000004    0.000000   -0.000000   -0.000000    0.000000   -0.000000
    5    4   -1    3    1   -0.000004    0.000000    0.000025   -0.000000    0.000005    0.000000
    5    4   -1    1    2    0.000004    0.000000    0.000000   -0.000000   -0.000000    0.000000
    5    4   -1    2    2    0.000000   -0.000000    0.000000   -0.000000    0.000000   -0.000000
    5    4   -1    3    2    0.000013   -0.000000    0.000000    0.000000    0.000000   -0.000000
    5    4   -1    1    3    0.000004    0.000000    0.000005   -0.000000   -0.000004    0.000000
    5    4   -1    2    3    0.000013   -0.000000    0.000000   -0.000000    0.000000    0.000000
    5    4   -1    3    3   -0.000000    0.000000    0.000000   -0.000000   -0.000000    0.000000
    5    4    0    1    1    0.000000   -0.000000   -0.000000    0.000000    0.000000   -0.000000
    5    4    0    2    1   -0.000006    0.000000   -0.000000    0.000000   -0.000000    0.000000
    5    4    0    3    1    0.000000    0.000000   -0.000000    0.000000    0.000003   -0.000000
    5    4    0    1    2   -0.000006    0.000000   -0.000000    0.000000    0.000000   -0.000000
    5    4    0    2    2    0.000000    0.000000    0.000000    0.000000    0.000000    0.000000
    5    4    0    3    2   -0.000000    0.000000    0.000000   -0.000000    0.000000    0.000000
    5    4    0    1    3    0.000000   -0.000000    0.000000    0.000000   -0.000003   -0.000000
    5    4    0    2    3   -0.000000   -0.000000    0.000000   -0.000000   -0.000000    0.000000
    5    4    0    3    3    0.000000    0.000000    0.000000   -0.000000   -0.000000   -0.000000
    5    4    1    1    1    0.000000    0.000000    0.000000    0.000000   -0.000000   -0.000000
    5    4    1    2    1    0.000004   -0.000000   -0.000000    0.000000   -0.000000    0.000000
    5    4    1    3    1    0.000004   -0.000000   -0.000025    0.000000    0.000005    0.000000
    5    4    1    1    2    0.000004   -0.000000   -0.000000    0.000000    0.000000    0.000000
    5    4    1    2    2    0.000000    0.000000   -0.000000   -0.000000    0.000000    0.000000
    5    4    1    3    2   -0.000013    0.000000   -0.000000   -0.000000   -0.000000    0.000000
    5    4    1    1    3   -0.000004    0.000000   -0.000005    0.000000   -0.000005   -0.000000
    5    4    1    2    3   -0.000013   -0.000000   -0.000000    0.000000   -0.000000    0.000000
    5    4    1    3    3   -0.000000   -0.000000    0.000000   -0.000000   -0.000000    0.000000
    5    4    2    1    1    0.000000   -0.000000    0.000000    0.000000   -0.000000   -0.000000
    5    4    2    2    1    0.000000   -0.000000    0.000000   -0.000000   -0.000000    0.000000
    5    4    2    3    1   -0.000000    0.000000   -0.000010   -0.000000    0.000002   -0.000000
    5    4    2    1    2    0.000000   -0.000000    0.000000   -0.000000   -0.000000   -0.000000
    5    4    2    2    2    0.000000    0.000000    0.000000   -0.000000   -0.000000    0.000000
    5    4    2    3    2   -0.000004    0.000000   -0.000000   -0.000000   -0.000000   -0.000000
    5    4    2    1    3    0.000000    0.000000   -0.000010   -0.000000   -0.000002    0.000000
    5    4    2    2    3   -0.000004   -0.000000    0.000000    0.000000   -0.000000   -0.000000
    5    4    2    3    3    0.000000    0.000000    0.000000   -0.000000    0.000000    0.000000
    5    4    3    1    1   -0.000000   -0.000000    0.000000   -0.000000    0.000000    0.000000
    5    4    3    2    1   -0.000004    0.000000   -0.000000   -0.000000   -0.000000   -0.000000
    5    4    3    3    1    0.000001   -0.000000   -0.000004   -0.000000   -0.000000   -0.000000
    5    4    3    1    2   -0.000004    0.000000    0.000000   -0.000000    0.000000    0.000000
    5    4    3    2    2    0.000000    0.000000    0.000000   -0.000000    0.000000    0.000000
    5    4    3    3    2    0.000005   -0.000000   -0.000000   -0.000000    0.000000   -0.000000
    5    4    3    1    3   -0.000001    0.000000   -0.000001    0.000000   -0.000001    0.000000
    5    4    3    2    3    0.000005    0.000000    0.000000   -0.000000   -0.000000    0.000000
    5    4    3    3    3    0.000000   -0.000000   -0.000000    0.000000    0.000000   -0.000000
    5    4    4    1    1    0.000000    0.000000   -0.000000   -0.000000    0.000000   -0.000000
    5    4    4    2    1    0.000002   -0.000000   -0.000000    0.000000   -0.000000    0.000000
    5    4    4    3    1    0.000000   -0.000000   -0.000002    0.000000   -0.000002   -0.000000
    5    4    4    1    2    0.000002   -0.000000   -0.000000   -0.000000   -0.000000   -0.000000
    5    4    4    2    2    0.000000    0.000000    0.000000   -0.000000   -0.000000   -0.000000
    5    4    4    3    2    0.000002   -0.000000   -0.000000   -0.000000   -0.000000   -0.000000
    5    4    4    1    3    0.000000   -0.000000   -0.000002   -0.000000   -0.000002   -0.000000
    5    4    4    2    3    0.000002   -0.000000   -0.000000    0.000000    0.000000   -0.000000
    5    4    4    3    3    0.000000    0.000000   -0.000000    0.000000   -0.000000   -0.000000
    5    4    5    1    1    0.000000    0.000000   -0.000000   -0.000000    0.000000    0.000000
    5    4    5    2    1   -0.000003   -0.000000    0.000000    0.000000    0.000000    0.000000
    5    4    5    3    1   -0.000000    0.000000    0.000000   -0.000000   -0.000003   -0.000000
    5    4    5    1    2   -0.000003    0.000000   -0.000000   -0.000000    0.000000   -0.000000
    5    4    5    2    2    0.000000    0.000000   -0.000000    0.000000    0.000000    0.000000
    5    4    5    3    2   -0.000000   -0.000000   -0.000000   -0.000000   -0.000000    0.000000
    5    4    5    1    3   -0.000000   -0.000000   -0.000000   -0.000000   -0.000003   -0.000000
    5    4    5    2    3   -0.000000   -0.000000   -0.000000   -0.000000   -0.000000   -0.000000
    5    4    5    3    3    0.000000    0.000000   -0.000000    0.000000    0.000000    0.000000
    5    5   -5    1    1   -0.000000   -0.000000    0.000000   -0.000000   -0.000000   -0.000000
    5    5   -5    2    1    0.000000    0.000000    0.000000   -0.000000    0.000000   -0.000000
    5    5   -5    3    1   -0.000000   -0.000000    0.000000   -0.000000   -0.000000   -0.000000
    5    5   -5    1    2   -0.000000    0.000000   -0.000000   -0.000000   -0.000000   -0.000000
    5    5   -5    2    2   -0.000000   -0.000000   -0.000000   -0.000000   -0.000000   -0.000000
    5    5   -5    3    2    0.000000   -0.000000   -0.000000    0.000000   -0.000000    0.000000
    5    5   -5    1    3    0.000000   -0.000000   -0.000000   -0.000000    0.000000   -0.000000
    5    5   -5    2    3   -0.000000   -0.000000    0.000000    0.000000    0.000000    0.000000
    5    5   -5    3    3    0.000000   -0.000000    0.000000   -0.000000   -0.000000   -0.000000
    5    5   -4    1    1    0.000000   -0.000000    0.000000    0.000000   -0.000000   -0.000000
    5    5   -4    2    1   -0.000000   -0.000000    0.000000   -0.000000    0.000000    0.000000
    5    5   -4    3    1    0.000000   -0.000000    0.000003    0.000000   -0.000000   -0.000000
    5    5   -4    1    2   -0.000000   -0.000000    0.000000    0.000000    0.000000   -0.000000
    5    5   -4    2    2    0.000000    0.000000    0.000000    0.000000    0.000000    0.000000
    5    5   -4    3    2    0.000003   -0.000000   -0.000000   -0.000000    0.000000    0.000000
    5    5   -4    1    3    0.000000    0.000000    0.000003    0.000000   -0.000000   -0.000000
    5    5   -4    2    3    0.000003    0.000000    0.000000    0.000000   -0.000000    0.000000
    5    5   -4    3    3   -0.000000   -0.000000    0.000000    0.000000   -0.000000   -0.000000
    5    5   -3    1    1    0.000000   -0.000000    0.000000   -0.000000    0.000000   -0.000000
    5    5   -3    2    1    0.000000    0.000000   -0.000000   -0.000000   -0.000000   -0.000000
    5    5   -3    3    1    0.000000   -0.000000    0.000004   -0.000000    0.000000   -0.000000
    5    5   -3    1    2    0.000000    0.000000   -0.000000    0.000000   -0.000000    0.000000
    5    5   -3    2    2    0.000000   -0.000000   -0.000000   -0.000000    0.000000   -0.000000
    5    5   -3    3    2    0.000004    0.000000    0.000000    0.000000   -0.000000    0.000000
    5    5   -3    1    3    0.000000   -0.000000    0.000004   -0.000000    0.000000    0.000000
    5    5   -3    2    3    0.000004    0.000000   -0.000000    0.000000    0.000000    0.000000
    5    5   -3    3    3    0.000000    0.000000    0.000000   -0.000000    0.000000   -0.000000
    5    5   -2    1    1   -0.000000    0.000000    0.000000   -0.000000   -0.000000   -0.000000
    5    5   -2    2    1   -0.000000    0.000000   -0.000000    0.000000    0.000000    0.000000
    5    5   -2    3    1    0.000000    0.000000    0.000014   -0.000000    0.000000   -0.000000
    5    5   -2    1    2   -0.000000   -0.000000    0.000000    0.000000    0.000000   -0.000000
    5    5   -2    2    2    0.000000    0.000000   -0.000000    0.000000    0.000000    0.000000
    5    5   -2    3    2    0.000014    0.000000    0.000000   -0.000000   -0.000000    0.000000
    5    5   -2    1    3   -0.000000   -0.000000    0.000014   -0.000000    0.000000   -0.000000
    5    5   -2    2    3    0.000014    0.000000   -0.000000    0.000000   -0.000000    0.000000
    5    5   -2    3    3    0.000000   -0.000000    0.000000    0.000000   -0.000000    0.000000
    5    5   -1    1    1   -0.000000   -0.000000    0.000000   -0.000000   -0.000000    0.000000
    5    5   -1    2    1   -0.000000   -0.000000    0.000000    0.000000   -0.000000   -0.000000
    5    5   -1    3    1    0.000000    0.000000    0.000022   -0.000000   -0.000000    0.000000
    5    5   -1    1    2   -0.000000   -0.000000   -0.000000    0.000000   -0.000000    0.000000
    5    5   -1    2    2    0.000000   -0.000000    0.000000   -0.000000    0.000000   -0.000000
    5    5   -1    3    2    0.000022    0.000000    0.000000   -0.000000    0.000000   -0.000000
    5    5   -1    1    3   -0.000000   -0.000000    0.000022   -0.000000   -0.000000   -0.000000
    5    5   -1    2    3    0.000022   -0.000000   -0.000000   -0.000000    0.000000    0.000000
    5    5   -1    3    3   -0.000000    0.000000    0.000000   -0.000000    0.000000    0.000000
    5    5    0    1    1    0.000000   -0.000000    0.000000   -0.000000    0.000000   -0.000000
    5    5    0    2    1   -0.000000    0.000000    0.000000    0.000000    0.000000    0.000000
    5    5    0    3    1    0.000000   -0.000000   -0.000000   -0.000000   -0.000000   -0.000000
    5    5    0    1    2    0.000000    0.000000   -0.000000    0.000000    0.000000   -0.000000
    5    5    0    2    2    0.000000   -0.000000   -0.000000   -0.000000   -0.000000   -0.000000
    5    5    0    3    2    0.000000   -0.000000   -0.000000    0.000000   -0.000000   -0.000000
    5    5    0    1    3   -0.000000   -0.000000    0.000000   -0.000000   -0.000000    0.000000
    5    5    0    2    3   -0.000000   -0.000000    0.000000    0.000000   -0.000000    0.000000
    5    5    0    3    3    0.000000   -0.000000    0.000000   -0.000000    0.000000   -0.000000
    5    5    1    1    1    0.000000    0.000000    0.000000   -0.000000   -0.000000   -0.000000
    5    5    1    2    1    0.000000   -0.000000    0.000000    0.000000   -0.000000   -0.000000
    5    5    1    3    1    0.000000   -0.000000   -0.000022   -0.000000   -0.000000    0.000000
    5    5    1    1    2    0.000000   -0.000000   -0.000000    0.000000   -0.000000    0.000000
    5    5    1    2    2    0.000000    0.000000    0.000000    0.000000    0.000000    0.000000
    5    5    1    3    2   -0.000022   -0.000000    0.000000   -0.000000   -0.000000   -0.000000
    5    5    1    1    3   -0.000000    0.000000   -0.000022   -0.000000   -0.000000   -0.000000
    5    5    1    2    3   -0.000022    0.000000   -0.000000   -0.000000    0.000000    0.000000
    5    5    1    3    3    0.000000   -0.000000    0.000000    0.000000    0.000000   -0.000000
    5    5    2    1    1   -0.000000   -0.000000    0.000000    0.000000   -0.000000    0.000000
    5    5    2    2    1    0.000000   -0.000000   -0.000000    0.000000    0.000000   -0.000000
    5    5    2    3    1    0.000000   -0.000000   -0.000014   -0.000000    0.000000    0.000000
    5    5    2    1    2    0.000000    0.000000    0.000000    0.000000    0.000000    0.000000
    5    5    2    2    2    0.000000   -0.000000    0.000000   -0.000000    0.000000   -0.000000
    5    5    2    3    2   -0.000014    0.000000    0.000000    0.000000   -0.000000    0.000000
    5    5    2    1    3   -0.000000    0.000000   -0.000014   -0.000000   -0.000000    0.000000
    5    5    2    2    3   -0.000014    0.000000   -0.000000   -0.000000    0.000000   -0.000000
    5    5    2    3    3    0.000000    0.000000    0.000000    0.000000   -0.000000   -0.000000
    5    5    3    1    1    0.000000   -0.000000    0.000000    0.000000    0.000000    0.000000
    5    5    3    2    1   -0.000000    0.000000    0.000000    0.000000   -0.000000    0.000000
    5    5    3    3    1   -0.000000   -0.000000   -0.000004   -0.000000   -0.000000    0.000000
    5    5    3    1    2   -0.000000    0.000000    0.000000   -0.000000   -0.000000   -0.000000
    5    5    3    2    2    0.000000   -0.000000    0.000000    0.000000    0.000000    0.000000
    5    5    3    3    2   -0.000004    0.000000    0.000000    0.000000   -0.000000    0.000000
    5    5    3    1    3   -0.000000   -0.000000   -0.000004   -0.000000   -0.000000   -0.000000
    5    5    3    2    3   -0.000004    0.000000   -0.000000    0.000000    0.000000   -0.000000
    5    5    3    3    3    0.000000   -0.000000    0.000000    0.000000    0.000000    0.000000
    5    5    4    1    1    0.000000    0.000000    0.000000    0.000000   -0.000000    0.000000
    5    5    4    2    1    0.000000   -0.000000   -0.000000    0.000000    0.000000    0.000000
    5    5    4    3    1   -0.000000    0.000000   -0.000003    0.000000    0.000000   -0.000000
    5    5    4    1    2    0.000000   -0.000000   -0.000000   -0.000000    0.000000   -0.000000
    5    5    4    2    2    0.000000    0.000000    0.000000   -0.000000    0.000000   -0.000000
    5    5    4    3    2   -0.000003    0.000000   -0.000000    0.000000   -0.000000    0.000000
    5    5    4    1    3   -0.000000   -0.000000   -0.000003    0.000000    0.000000   -0.000000
    5    5    4    2    3   -0.000003   -0.000000    0.000000   -0.000000   -0.000000    0.000000
    5    5    4    3    3    0.000000    0.000000    0.000000    0.000000   -0.000000    0.000000
    5    5    5    1    1   -0.000000    0.000000    0.000000    0.000000   -0.000000    0.000000
    5    5    5    2    1    0.000000    0.000000    0.000000   -0.000000    0.000000   -0.000000
    5    5    5    3    1   -0.000000   -0.000000    0.000000   -0.000000   -0.000000   -0.000000
    5    5    5    1    2   -0.000000    0.000000   -0.000000   -0.000000   -0.000000   -0.000000
    5    5    5    2    2   -0.000000    0.000000   -0.000000    0.000000   -0.000000    0.000000
    5    5    5    3    2    0.000000   -0.000000   -0.000000    0.000000   -0.000000    0.000000
    5    5    5    1    3    0.000000   -0.000000   -0.000000   -0.000000    0.000000   -0.000000
    5    5    5    2    3   -0.000000   -0.000000    0.000000    0.000000    0.000000    0.000000
    5    5    5    3    3    0.000000    0.000000    0.000000    0.000000   -0.000000    0.000000
